
  648  0.0000000e+00
 -10.5800000  -1.0400000 -23.3200000 -11.3360000  -1.5770000 -23.7200000
  -9.8490000  -1.2120000 -23.9950000 -10.4320000  -1.5420000 -22.4550000
 -10.9150000   0.3760000 -23.3340000 -10.7740000   0.9100000 -24.2740000
  -9.9780000   1.0890000 -22.4350000 -10.0890000   1.0390000 -21.1910000
 -12.3880000   0.5790000 -22.9630000 -12.6800000  -0.1670000 -22.2230000
 -13.0010000   0.3570000 -23.8360000 -12.8040000   1.9810000 -22.4450000
 -13.8580000   2.0490000 -22.7110000 -12.2420000   2.6950000 -23.0470000
 -12.6680000   2.3230000 -20.9130000 -11.6190000   2.5690000 -20.7440000
 -13.0530000   1.4410000 -20.4010000 -13.6190000   3.3410000 -20.4790000
 -14.0030000   3.9480000 -21.1880000 -13.9900000   3.5770000 -19.2350000
 -13.4450000   2.9760000 -18.2760000 -13.7280000   3.0520000 -17.3100000
 -12.8460000   2.1950000 -18.5060000 -14.8400000   4.4960000 -19.1110000
 -15.1710000   4.8900000 -18.2420000 -15.2130000   4.8610000 -19.9760000
  -8.9950000   1.8150000 -23.0490000  -9.0460000   1.7740000 -24.0570000
  -7.7550000   2.4210000 -22.5020000  -7.7180000   3.4340000 -22.9030000
  -6.8930000   1.7820000 -22.6940000  -7.7370000   2.6790000 -20.9370000
  -6.8730000   2.1350000 -20.2750000  -8.6660000   3.5410000 -20.4580000
  -9.3150000   3.9590000 -21.1100000  -8.7910000   4.0480000 -19.0780000
  -7.8430000   4.5030000 -18.7910000  -9.1850000   3.1540000 -17.9320000
  -9.2750000   3.5030000 -16.7270000  -9.8680000   5.2100000 -19.1780000
 -10.8650000   4.7880000 -19.0560000  -9.7810000   5.7980000 -18.2640000
  -9.6290000   6.0740000 -20.4260000 -10.1180000   7.0270000 -20.2270000
 -10.1330000   5.6460000 -21.2920000  -8.1110000   6.4390000 -20.7920000
  -7.7460000   6.4230000 -21.9700000  -7.4320000   6.8650000 -19.8620000
  -9.5730000   1.9600000 -18.3460000  -9.7240000   1.8790000 -19.3420000
  -9.8480000   0.8510000 -17.4590000 -10.2730000   1.3590000 -16.5930000
  -8.5620000   0.1880000 -17.0440000  -8.2330000   0.1960000 -15.9240000
 -10.9840000  -0.0660000 -18.1820000 -10.6070000  -0.2270000 -19.1910000
 -11.9040000   0.5180000 -18.2150000 -11.1920000  -1.3810000 -17.5660000
 -10.2020000  -1.8350000 -17.5320000 -11.7720000  -1.9770000 -18.2710000
 -11.7300000  -1.3720000 -16.0900000 -11.2370000  -0.5920000 -15.5090000
 -12.8160000  -1.2790000 -16.0740000 -11.4380000  -2.6710000 -15.3860000
 -10.8180000  -2.6800000 -14.5880000 -11.9790000  -3.8650000 -15.4470000
 -12.9570000  -4.1400000 -16.2890000 -13.1880000  -5.0850000 -16.5600000
 -13.4750000  -3.3160000 -16.5590000 -11.4040000  -4.8700000 -14.7950000
 -10.4880000  -4.7780000 -14.3790000 -11.7980000  -5.7770000 -15.0010000
  -7.7410000  -0.2460000 -18.0070000  -8.0820000  -0.2690000 -18.9580000
  -6.3090000  -0.6670000 -17.8500000  -6.1710000  -1.4660000 -17.1210000
  -5.4650000   0.4570000 -17.2550000  -4.7970000   0.1150000 -16.2730000
  -5.7660000  -1.0550000 -19.2410000  -6.3720000  -1.7670000 -19.8010000
  -5.6870000  -0.1940000 -19.9060000  -4.3160000  -1.7010000 -19.0840000
  -3.7370000  -1.3910000 -18.2140000  -3.7300000  -1.6050000 -19.9980000
  -4.5520000  -3.1640000 -18.8850000  -3.6260000  -3.6030000 -19.2550000
  -5.2560000  -3.5940000 -19.5970000  -4.6970000  -3.6530000 -17.4290000
  -5.7660000  -3.5860000 -17.2240000  -4.0780000  -3.0370000 -16.7770000
  -4.2510000  -5.0770000 -17.4770000  -4.1910000  -5.5490000 -16.5860000
  -3.3380000  -5.1460000 -17.9040000  -4.8320000  -5.6180000 -18.1020000
  -5.4060000   1.6810000 -17.6450000  -5.8630000   1.8900000 -18.5210000
  -4.6710000   2.7580000 -16.9580000  -3.6670000   2.3490000 -16.8510000
  -5.0570000   3.1000000 -15.5060000  -4.2000000   3.3990000 -14.7390000
  -4.7480000   4.0650000 -17.8300000  -5.0260000   3.7980000 -18.8500000
  -5.5180000   4.6870000 -17.3730000  -3.3600000   4.7640000 -17.7860000
  -3.3660000   5.7670000 -18.2140000  -3.1420000   4.8480000 -16.7210000
  -2.1780000   3.9670000 -18.4620000  -1.0270000   3.8720000 -17.9900000
  -2.4840000   3.3150000 -19.4610000  -6.2870000   2.9120000 -15.0700000
  -6.9830000   2.5950000 -15.7290000  -6.6700000   3.1230000 -13.6450000
  -5.8130000   3.6650000 -13.2460000  -6.5410000   1.8360000 -12.8470000
  -6.3620000   1.8670000 -11.6170000  -7.9840000   3.8460000 -13.4930000
  -8.5810000   3.5740000 -14.3630000  -8.5340000   3.6170000 -12.5810000
  -7.6230000   5.4000000 -13.3950000  -6.8820000   5.7980000 -14.0880000
  -7.1950000   5.4510000 -12.3940000  -9.0310000   6.0290000 -13.3630000
  -9.6500000   5.4070000 -12.7170000  -9.4520000   5.9870000 -14.3670000
  -8.8500000   7.4930000 -12.7770000  -8.1830000   7.5160000 -11.9160000
  -9.8460000   7.8430000 -12.5070000  -8.3640000   8.5000000 -13.7970000
  -7.6740000   9.1390000 -13.4300000  -9.1240000   9.1110000 -14.0610000
  -8.0260000   8.0670000 -14.6450000  -6.5330000   0.7490000 -13.6040000
  -6.9410000   0.8850000 -14.5180000  -5.9880000  -0.5950000 -13.2190000
  -6.3750000  -0.8000000 -12.2210000  -4.4760000  -0.6580000 -13.1250000
  -3.9040000  -1.7010000 -12.7500000  -6.6070000  -1.6960000 -14.1880000
  -6.5090000  -1.3950000 -15.2310000  -7.6480000  -1.8250000 -13.8940000
  -5.9200000  -2.8500000 -14.0600000  -5.1700000  -2.7110000 -13.4780000
  -3.7270000   0.4310000 -13.3850000  -4.1640000   1.2640000 -13.7520000
  -2.3880000   0.6880000 -12.8370000  -1.8940000  -0.1650000 -12.3730000
  -2.3790000   1.8950000 -11.8110000  -1.8000000   1.6860000 -10.7160000
  -1.5140000   1.1460000 -14.0120000  -0.4980000   1.3070000 -13.6530000
  -1.9170000   2.0940000 -14.3690000  -1.5470000   0.2430000 -15.2770000
  -1.1390000  -0.7230000 -14.9780000  -2.4540000  -0.0010000 -15.8310000
  -0.4730000   0.7850000 -16.2200000  -0.5280000   1.8640000 -16.3690000
   0.4310000   0.4960000 -15.6860000  -0.4530000   0.2940000 -17.7810000
  -1.4140000  -0.0390000 -18.1730000   0.0600000  -0.6530000 -17.9490000
   0.0420000   1.3970000 -18.6900000   1.0500000   1.3510000 -18.6370000
  -0.4040000   2.2710000 -18.4510000  -0.2190000   1.2260000 -19.6500000
  -3.1130000   2.9230000 -11.9140000  -3.4530000   3.1420000 -12.8390000
  -3.0250000   4.0390000 -10.9400000  -1.9570000   4.1990000 -10.7910000
  -3.5090000   3.6840000  -9.4970000  -2.6690000   3.8260000  -8.5680000
  -3.9010000   5.1550000 -11.5010000  -4.0260000   5.8990000 -10.7140000
  -4.8830000   4.7040000 -11.6400000  -3.5230000   5.9290000 -12.7530000
  -3.5930000   5.3520000 -13.6750000  -4.2880000   7.1910000 -13.0190000
  -4.2230000   7.8370000 -12.1440000  -5.3320000   7.0730000 -13.3090000
  -3.8590000   7.7720000 -13.8350000  -2.1170000   6.4700000 -12.6890000
  -1.8860000   7.0530000 -13.5800000  -1.4560000   5.6080000 -12.5930000
  -1.7930000   7.0920000 -11.8550000  -4.7200000   3.2150000  -9.3240000
  -5.3070000   3.2950000 -10.1420000  -5.2950000   2.8630000  -8.0110000
  -5.2780000   3.6360000  -7.2430000  -4.6200000   1.6410000  -7.5130000
  -4.4020000   1.4760000  -6.3250000  -6.8730000   2.5740000  -8.2060000
  -6.8780000   1.7750000  -8.9490000  -7.6540000   3.7460000  -8.6580000
  -7.0360000   4.3340000  -9.3360000  -7.9320000   4.3690000  -7.8080000
  -7.5880000   2.0290000  -6.9180000  -8.5270000   1.5430000  -7.1840000
  -6.9510000   1.2820000  -6.4470000  -7.6000000   2.8790000  -6.2360000
  -8.8100000   3.1700000  -9.3720000  -8.4720000   2.6050000 -10.2400000
  -9.4240000   3.9890000  -9.7470000  -9.4670000   2.4790000  -8.8440000
  -4.1890000   0.7980000  -8.4250000  -4.4200000   0.8700000  -9.4060000
  -3.5620000  -0.4860000  -7.9930000  -4.1560000  -0.9500000  -7.2050000
  -2.1570000  -0.2880000  -7.4050000  -1.6360000  -1.1370000  -6.6700000
  -3.6260000  -1.3960000  -9.3180000  -4.5550000  -1.9610000  -9.2440000
  -3.6770000  -0.7040000 -10.1580000  -2.4360000  -2.2870000  -9.4460000
  -2.5970000  -3.6750000  -9.1290000  -3.3840000  -4.0650000  -8.5000000
  -1.2800000  -1.7450000 -10.0370000  -1.1020000  -0.7800000 -10.4890000
  -1.5030000  -4.5350000  -9.3830000  -1.4630000  -5.4670000  -8.8380000
  -0.2190000  -2.6220000 -10.3790000   0.6540000  -2.2950000 -10.9250000
  -0.3300000  -4.0220000 -10.0550000   0.5550000  -4.6350000 -10.1480000
  -1.4440000   0.8790000  -7.7910000  -1.9450000   1.5290000  -8.3790000
  -0.1830000   1.3190000  -7.2080000   0.3410000   0.4170000  -6.8920000
  -0.5530000   2.1390000  -5.9910000   0.3020000   1.9960000  -5.0640000
   0.6510000   2.2170000  -8.1770000   0.0290000   2.9370000  -8.7100000
   1.2840000   1.2000000  -9.1860000   0.4880000   0.6750000  -9.7140000
   2.0330000   0.5440000  -8.7420000   1.7020000   3.0730000  -7.4580000
   2.1820000   3.7820000  -8.1320000   2.5780000   2.5180000  -7.1220000
   1.3190000   3.6770000  -6.6350000   2.0440000   1.8390000 -10.3680000
   2.3560000   0.9590000 -10.9300000   1.2730000   2.4310000 -10.8610000
   2.9150000   2.4030000 -10.0330000  -1.7150000   2.8030000  -5.8050000
  -2.3520000   2.9440000  -6.5770000  -2.0270000   3.5830000  -4.5950000
  -1.1740000   4.1850000  -4.2830000  -2.3270000   2.5510000  -3.4920000
  -1.7480000   2.6560000  -2.3950000  -3.1890000   4.5870000  -4.9460000
  -3.8940000   4.0180000  -5.5510000  -2.7120000   5.7660000  -5.8230000
  -2.0580000   5.3030000  -6.5620000  -2.1630000   6.4690000  -5.1970000
  -3.7670000   5.0670000  -3.6290000  -4.7410000   5.4650000  -3.9140000
  -3.1140000   5.8850000  -3.3270000  -3.9810000   4.2370000  -2.9550000
  -3.7300000   6.5570000  -6.6040000  -4.3190000   5.8840000  -7.2270000
  -3.2220000   7.0850000  -7.4100000  -4.4760000   7.1560000  -6.0820000
  -3.0880000   1.5170000  -3.8020000  -3.3000000   1.4280000  -4.7860000
  -3.1790000   0.2330000  -3.1180000  -3.5280000   0.4090000  -2.1010000
  -1.6860000  -0.1830000  -2.9000000  -1.2570000  -0.2590000  -1.7320000
  -3.9240000  -0.9320000  -3.8180000  -3.8500000  -1.7960000  -3.1580000
  -3.4330000  -1.0890000  -4.7780000  -5.4410000  -0.7360000  -4.0900000
  -6.1260000   0.0070000  -3.3920000  -5.9830000  -1.5920000  -4.7880000
  -0.8620000  -0.4620000  -3.8880000  -1.1670000  -0.3500000  -4.8450000
   0.4540000  -1.1990000  -3.5710000   0.0580000  -1.8520000  -2.7930000
   1.5970000  -0.4580000  -2.8990000   2.5820000  -1.1140000  -2.5850000
   0.9890000  -2.0040000  -4.7150000   1.2710000  -1.4940000  -5.6350000
   1.8500000  -2.5500000  -4.3300000  -0.0030000  -2.8690000  -5.1590000
  -0.4130000  -2.4190000  -5.9010000   1.5190000   0.9370000  -2.7320000
   0.5960000   1.3260000  -2.8620000   2.4520000   1.7050000  -1.8560000
   3.3580000   1.0980000  -1.8610000   1.8310000   1.6140000  -0.4710000
   2.5750000   1.1560000   0.4150000   2.7770000   3.1230000  -2.3360000
   1.8680000   3.6800000  -2.5690000   3.2250000   3.6350000  -1.4850000
   3.6410000   3.0240000  -3.6210000   4.1910000   2.0860000  -3.5440000
   2.9300000   3.0760000  -4.4460000   4.5830000   4.2090000  -3.7470000
   5.2320000   4.0690000  -4.6120000   4.0240000   5.1330000  -3.8890000
   5.5550000   4.3810000  -2.5120000   5.0550000   4.6910000  -1.5940000
   5.9570000   3.3950000  -2.2800000   6.7510000   5.2500000  -2.6570000
   7.2770000   4.7950000  -3.3890000   6.3940000   6.1270000  -3.0100000
   7.3140000   5.2860000  -1.8190000   0.6070000   2.1100000  -0.2830000
   0.0570000   2.3660000  -1.0900000  -0.1140000   2.0530000   0.9910000
   0.5490000   2.3990000   1.7840000  -0.2690000   0.5960000   1.5620000
   0.2480000   0.4260000   2.6910000  -1.2610000   3.0790000   1.1790000
  -1.7600000   3.0020000   0.2130000  -0.6030000   4.6120000   1.1400000
  -0.6010000   4.9350000   2.1800000   0.3950000   4.5160000   0.7120000
  -2.2700000   3.0160000   2.2510000  -3.1720000   3.6050000   2.0870000
  -1.8300000   3.2500000   3.2200000  -2.6840000   2.0140000   2.1390000
  -1.3210000   5.5840000   0.2100000  -0.7330000   6.4820000   0.0200000
  -2.2250000   5.8070000   0.7750000  -1.5540000   5.1680000  -0.7700000
  -0.7980000  -0.4970000   0.9580000  -1.2430000  -0.3990000   0.0570000
  -0.6950000  -1.8050000   1.5500000  -1.2400000  -1.7800000   2.4930000
   0.7170000  -2.2790000   1.9810000   0.9030000  -3.0800000   2.9140000
  -1.3080000  -2.8040000   0.5350000  -2.3610000  -2.5850000   0.3560000
  -0.7890000  -2.7320000  -0.4200000  -1.3170000  -4.2690000   1.0780000
  -2.2420000  -4.6700000   2.0650000  -3.1020000  -4.0650000   2.3120000
  -0.2980000  -5.1250000   0.5590000   0.3870000  -4.7160000  -0.1700000
  -2.0250000  -5.9260000   2.6270000  -2.6790000  -6.3210000   3.3900000
  -0.0860000  -6.3710000   1.0890000   0.7950000  -6.9040000   0.7630000
  -0.9980000  -6.7720000   2.0860000  -0.9360000  -7.7710000   2.4910000
   1.7760000  -1.8910000   1.2440000   1.6120000  -1.3490000   0.4080000
   3.0870000  -2.3910000   1.5990000   3.0580000  -3.4630000   1.7920000
   3.4990000  -1.6530000   2.8810000   3.9470000  -2.2700000   3.8430000
   3.9670000  -2.1390000   0.3590000   3.6520000  -1.2310000  -0.1560000
   4.9930000  -2.0330000   0.7110000   3.7720000  -3.2500000  -0.6870000
   2.7790000  -3.1760000  -1.1300000   4.9140000  -3.0920000  -1.7370000
   5.8390000  -3.6170000  -1.4990000   4.5240000  -3.2540000  -2.7420000
   5.2340000  -2.0560000  -1.8480000   4.0190000  -4.6450000  -0.0260000
   4.8240000  -4.5870000   0.7070000   3.1250000  -4.9300000   0.5300000
   4.2940000  -5.4150000  -0.7460000   3.5200000  -0.3090000   2.8760000
   3.0440000   0.1210000   2.0960000   3.8870000   0.6250000   3.9290000
   4.9040000   0.3480000   4.2050000   3.0080000   0.4770000   5.2000000
   3.4740000   0.8620000   6.2600000   3.7010000   2.0250000   3.3910000
   4.2360000   2.0640000   2.4430000   2.6730000   2.3890000   3.3820000
   4.4340000   2.8240000   4.2570000   4.0180000   2.8070000   5.1220000
   1.7860000  -0.0470000   5.0890000   1.2850000  -0.1280000   4.2160000
   1.0520000  -0.4410000   6.2830000   1.2410000   0.1840000   7.1560000
   1.3610000  -1.8330000   6.8440000   1.1570000  -2.0740000   8.0450000
  -0.4520000  -0.3710000   5.9440000  -0.6790000   0.5700000   5.4420000
  -0.6890000  -1.0800000   5.1510000  -1.3420000  -0.6070000   7.1780000
  -1.5130000   0.3870000   8.1700000  -0.9990000   1.3360000   8.1210000
  -2.0340000  -1.7520000   7.3380000  -1.8240000  -2.5250000   6.6130000
  -2.5560000   0.2390000   9.1410000  -2.6830000   1.0210000   9.8760000
  -3.0930000  -1.9010000   8.2810000  -3.6710000  -2.8100000   8.3500000
  -3.3670000  -0.8630000   9.1020000  -4.2280000  -0.9300000   9.7500000
   1.7230000  -2.7850000   6.0250000   1.8840000  -2.5810000   5.0490000
   2.2740000  -4.1270000   6.3700000   1.4970000  -4.6110000   6.9610000
   3.4980000  -4.0180000   7.2440000   3.5200000  -4.9510000   8.0650000
   2.3590000  -4.9720000   5.0730000   2.8230000  -4.3710000   4.2910000
   2.9100000  -5.9020000   5.2190000   1.0560000  -5.2400000   4.5710000
   0.8010000  -4.7830000   3.7660000   4.5310000  -3.2060000   6.9200000
   4.4950000  -2.6580000   6.0730000   5.6120000  -2.9580000   7.8760000
   6.1970000  -3.8500000   8.0990000   5.1490000  -2.4170000   9.2230000
   5.6420000  -2.9030000  10.2340000   6.8300000  -2.0660000   7.2980000
   6.4130000  -1.0850000   7.0730000   7.4440000  -2.5360000   5.9220000
   6.6550000  -2.6580000   5.1790000   7.9220000  -3.5140000   5.9820000
   7.9900000  -1.8460000   8.3420000   7.5710000  -1.3390000   9.2110000
   8.2890000  -2.7610000   8.8560000   8.9520000  -1.4190000   8.0580000
   8.5020000  -1.5560000   5.3160000   8.5070000  -0.6110000   5.8600000
   8.3580000  -1.3720000   4.2520000   9.4230000  -2.1370000   5.3560000
   4.2410000  -1.4260000   9.3010000   3.8980000  -1.1410000   8.3950000
   3.8960000  -0.5850000  10.5800000   4.8510000  -0.2010000  10.9390000
   3.4330000  -1.5620000  11.6720000   4.0950000  -1.5620000  12.7140000
   2.9970000   0.5150000  10.1840000   2.1500000   0.1400000   9.6080000
   3.5800000   1.2750000   9.6650000   2.3510000   1.1930000  11.2730000
   2.9430000   2.1840000  11.9840000   3.9220000   2.6180000  11.8440000
   1.1200000   0.9780000  11.8630000   2.1080000   2.6310000  12.9250000
   2.1520000   3.5220000  13.3970000   0.9830000   1.8280000  13.0170000
  -0.0430000   0.2130000  11.5360000  -0.1060000  -0.2910000  10.5830000
  -0.1750000   1.9140000  13.8250000  -0.1950000   2.7080000  14.5570000
  -1.1340000   0.1610000  12.4200000  -1.8710000  -0.5870000  12.1700000
  -1.2510000   1.0120000  13.5580000  -2.1040000   0.9320000  14.2170000
   2.3620000  -2.3380000  11.3850000   1.8000000  -2.2830000  10.5480000
   1.8580000  -3.1180000  12.5170000   1.8160000  -2.3810000  13.3190000
   2.9680000  -4.1210000  12.9280000   2.9640000  -4.2450000  14.1270000
   0.4690000  -3.6430000  12.1800000  -0.2110000  -2.8040000  12.0280000
   0.4490000  -4.3670000  11.3660000  -0.1780000  -4.3750000  13.4100000
  -1.1030000  -4.8270000  13.0500000   0.4170000  -5.2610000  13.6310000
  -0.6230000  -3.5000000  14.6750000   0.2490000  -2.9580000  15.0400000
  -1.3870000  -2.7660000  14.4180000  -1.0080000  -4.4790000  15.7320000
  -0.9620000  -5.4390000  15.4230000  -1.2130000  -4.2170000  17.0210000
  -1.3990000  -3.0750000  17.6770000  -1.3150000  -2.2750000  17.0660000
  -1.3040000  -2.9910000  18.6790000  -1.5230000  -5.1860000  17.8020000
  -1.5620000  -6.1400000  17.4740000  -1.9190000  -4.9250000  18.6940000
   3.8170000  -4.7690000  12.1090000   3.7920000  -4.5760000  11.1180000
   4.7470000  -5.8210000  12.5550000   4.2580000  -6.5960000  13.1450000
   5.8000000  -5.0770000  13.4890000   6.2100000  -5.6220000  14.5160000
   5.4470000  -6.6560000  11.4940000   4.8490000  -6.5010000  10.5960000
   5.3350000  -7.7330000  11.6170000   6.9820000  -6.3960000  11.2200000
   7.9410000  -6.9780000  12.0300000   7.6870000  -7.3890000  12.9950000
   7.3260000  -5.9930000   9.9860000   6.5980000  -5.5460000   9.3260000
   9.3300000  -7.0410000  11.6210000  10.0950000  -7.5230000  12.2100000
   8.6870000  -5.8140000   9.6780000   9.0080000  -5.2390000   8.8210000
   9.7340000  -6.3060000  10.5050000  10.7320000  -6.2670000  10.0960000
   6.2210000  -3.8300000  13.1440000   5.6980000  -3.3920000  12.4000000
   7.0800000  -3.0690000  14.0740000   8.0500000  -3.5630000  14.1300000
   6.5650000  -3.0620000  15.5070000   7.3700000  -3.1560000  16.4360000
   7.4590000  -1.7200000  13.4720000   7.7890000  -1.1210000  14.3210000
   6.5540000  -1.2680000  13.0640000   8.5260000  -1.7920000  12.4190000
   8.2550000  -2.4790000  11.6170000   8.8590000  -0.4470000  11.9220000
   9.4330000  -0.4530000  10.9960000   7.8640000  -0.1070000  11.6340000
   9.2040000   0.2210000  12.7110000   9.8880000  -2.2200000  13.0060000
  10.0280000  -1.5740000  13.8730000   9.8850000  -3.1850000  13.5120000
  10.7260000  -2.2370000  12.3090000   5.2470000  -2.9430000  15.8010000
   4.6140000  -2.9090000  15.0150000   4.6530000  -2.7710000  17.2300000
   5.2500000  -2.0860000  17.8320000   4.7790000  -4.1510000  18.0490000
   4.6720000  -4.1940000  19.2140000   3.1670000  -2.1980000  17.0150000
   2.6170000  -2.6550000  16.1920000   3.2570000  -0.6840000  16.5360000
   4.0490000  -0.2570000  17.1510000   3.6140000  -0.7580000  15.5090000
   2.1530000  -2.3620000  18.1350000   2.2740000  -1.6210000  18.9250000
   1.1420000  -2.2200000  17.7510000   2.3280000  -3.3490000  18.5630000
   1.9900000   0.2380000  16.7820000   1.8040000   0.1980000  17.8550000
   1.1380000  -0.3120000  16.3830000   2.3480000   1.2080000  16.4380000
   4.7690000  -5.1630000  17.2020000   4.7290000  -4.9160000  16.2240000
   4.9740000  -6.5350000  17.6160000   4.5340000  -6.7170000  18.5970000
   6.4490000  -6.8580000  17.8580000   6.7570000  -7.9590000  18.3140000
   4.3770000  -7.4950000  16.5820000   4.7550000  -7.2760000  15.5830000
   4.5700000  -8.5260000  16.8780000   2.8850000  -7.3760000  16.4110000
   2.5600000  -6.3370000  16.3500000   2.4570000  -8.0620000  15.1020000
   1.3730000  -7.9830000  15.0190000   2.7680000  -9.1060000  15.1180000
   2.8110000  -7.5740000  14.1940000   2.0070000  -7.8500000  17.6260000
   2.1720000  -8.8950000  17.8880000   0.9480000  -7.7690000  17.3790000
   2.2370000  -7.2230000  18.4880000   7.2820000  -5.8770000  17.4510000
   6.9260000  -5.0660000  16.9660000   8.7620000  -5.8310000  17.6930000
   9.1490000  -6.8040000  17.9950000   9.1810000  -4.8910000  18.8850000
  10.3030000  -5.0420000  19.4410000   9.4830000  -5.4160000  16.3380000
   8.7210000  -5.4790000  15.5610000   9.7880000  -4.3720000  16.4050000
  10.6180000  -6.3140000  15.8460000  10.1570000  -7.2890000  15.6900000
  11.2090000  -5.7790000  14.5140000  12.0510000  -6.4290000  14.2740000
  11.5130000  -4.7470000  14.6860000  10.5040000  -5.7670000  13.6840000
  11.6440000  -6.3570000  16.9160000  11.9750000  -5.3670000  17.2300000
  12.5190000  -6.9060000  16.5680000  11.3230000  -6.9780000  17.7520000
   8.3700000  -3.8510000  19.1260000   7.6180000  -3.8030000  18.4540000
   8.5750000  -2.8890000  20.1880000   9.6500000  -2.7280000  20.2680000
   8.1070000  -3.3360000  21.5970000   7.2350000  -2.6660000  22.2150000
   7.9480000  -1.5670000  19.6810000   8.1610000  -1.4210000  18.6220000
   6.9200000  -1.4980000  20.0360000   8.8230000  -0.5030000  20.3760000
   9.8760000  -0.5480000  20.0970000   8.6740000  -0.6390000  21.4470000
   8.5040000   0.9390000  20.0780000   7.6330000   1.2510000  20.6530000
   8.2940000   1.0880000  19.0190000   9.6300000   1.8860000  20.5010000
  10.2580000   2.1950000  19.7730000   9.9210000   2.4010000  21.6710000
   9.2740000   1.9670000  22.6690000   8.5810000   1.2570000  22.4830000
   9.3650000   2.3960000  23.5790000  10.8850000   3.2540000  21.9200000
  11.5760000   3.5970000  21.2690000  11.0380000   3.4060000  22.9060000
   8.5980000  -4.5090000  22.0550000   9.2920000  -4.9150000  21.4440000
   8.1880000  -5.2200000  23.2830000   7.1000000  -5.2600000  23.3190000
   8.7070000  -4.6660000  24.6170000   9.9420000  -4.4350000  24.6750000
   8.6240000  -6.6530000  23.0220000   9.7130000  -6.6070000  23.0310000
   8.3720000  -7.0030000  22.0210000   8.2060000  -7.5580000  24.0730000
   7.2660000  -7.7470000  24.0310000   7.9340000  -4.4840000  25.5850000
  -5.1980000  -2.3350000   2.8350000  -4.3460000  -1.2290000   2.2220000
  -3.4300000  -0.6230000   3.2450000  -3.7520000  -1.0840000   4.6320000
  -4.0100000   0.0390000   5.6070000  -4.9190000  -0.4510000   6.7320000
  -5.3070000  -1.9160000   6.6280000  -4.6550000   1.1100000   4.9410000
  -4.3990000   2.3780000   5.3240000  -5.2630000   3.2140000   5.3120000
  -3.0080000   2.6430000   5.7720000  -2.8110000   3.5200000   6.7960000
  -1.4820000   3.8320000   7.3580000  -1.4080000   4.2110000   8.6860000
  -0.1890000   4.5000000   9.2700000   0.9690000   4.4160000   8.5420000
   2.1360000   4.7060000   9.1620000   3.3100000   4.9380000   8.3930000
   0.9000000   4.0360000   7.2200000  -0.3250000   3.7480000   6.6320000
  -5.1484376  -2.2706619   3.9319978  -6.2416157  -2.2180097   2.5076171
  -4.8185988  -3.3142217   2.5076171  -3.7427467  -1.6512860   1.4048342
  -5.0147535  -0.4425472   1.8421833  -2.3946089  -0.9086882   3.0076236
  -3.5601763   0.4687716   3.2120000  -4.6510313  -1.7162007   4.5865575
  -2.8698115  -1.6286527   4.9995553  -3.0486600   0.3764874   6.0216415
  -4.3962389  -0.2999630   7.6879857  -5.8513724   0.1280814   6.6588804
  -5.4188305  -2.3382465   7.6375553  -6.2597764  -2.0053560   6.0855678
  -4.5233538  -2.4652413   6.0855678  -2.1562162   2.1426549   5.2881414
  -3.6894087   4.0225428   7.2271019  -2.3286772   4.2831926   9.2836134
  -0.1480762   4.7998128  10.3275621   4.1626314   5.1064928   9.0672624
   3.5117282   4.0623504   7.7585368   3.1634889   5.8245613   7.7585368
   1.8221752   3.9599869   6.6251766  -0.3654636   3.4499100   5.5739333
