
  371  0.0000000e+00
   6.3320000  -2.4770000   9.7070000   5.9410000  -1.9040000  10.4420000
   7.3000000  -2.5900000   9.9730000   5.9340000  -3.4050000   9.6730000
   6.2460000  -1.7840000   8.4010000   5.1940000  -1.5430000   8.2440000
   6.5360000  -2.6710000   7.2750000   7.6540000  -2.7060000   6.8120000
   6.9700000  -0.4420000   8.3700000   8.0030000  -0.5620000   8.0420000
   6.9400000   0.0950000   9.3180000   6.3900000   0.6570000   7.4730000
   5.0070000   0.9330000   7.6230000   4.4110000   0.3130000   8.2760000
   7.2220000   1.4560000   6.6720000   8.2890000   1.3440000   6.5460000
   4.4520000   2.0730000   6.9470000   3.3880000   2.2560000   6.9870000
   6.6570000   2.5220000   6.0490000   7.3280000   3.1270000   5.4580000
   5.2810000   2.8310000   6.1130000   4.8690000   3.9990000   5.5530000
   3.9380000   3.9960000   5.3190000   5.4970000  -3.4760000   6.8840000
   4.5550000  -3.2880000   7.1960000   5.6570000  -4.6020000   5.9270000
   4.8560000  -5.2990000   6.1750000   6.5610000  -5.1740000   6.1340000
   5.6860000  -4.3030000   4.4090000   5.7550000  -3.1260000   3.9930000
   5.4780000  -5.3830000   3.6110000   5.2500000  -6.2200000   4.1280000
   5.4690000  -5.3100000   2.1060000   5.9900000  -4.4060000   1.7890000
   4.0910000  -5.1750000   1.5560000   3.2480000  -5.9780000   1.8170000
   6.2980000  -6.4440000   1.5510000   5.7190000  -7.3550000   1.7050000
   6.4150000  -6.2470000   0.4850000   7.7000000  -6.6160000   2.0930000
   8.4270000  -5.6580000   1.9740000   8.1040000  -7.6740000   2.5820000
   3.8990000  -4.0690000   0.8430000   4.7510000  -3.6840000   0.4600000
   2.5990000  -3.6600000   0.1970000   2.5040000  -2.6230000  -0.1240000
   1.7690000  -3.8320000   0.8830000   2.2550000  -4.5770000  -1.0320000
   3.1420000  -5.2710000  -1.5080000   0.9700000  -4.6370000  -1.3880000
   0.4170000  -3.9680000  -0.8710000   0.3700000  -5.4240000  -2.3930000
  -0.2880000  -6.0890000  -1.8330000   1.2200000  -5.9910000  -2.7740000
  -0.3020000  -4.7130000  -3.5840000  -0.0310000  -3.5140000  -3.8320000
  -1.3100000  -5.3250000  -4.1660000  -1.3250000  -6.3090000  -3.9390000
  -2.2720000  -4.7530000  -5.1480000  -2.0050000  -3.7070000  -5.2970000
  -3.6730000  -4.8870000  -4.5670000  -3.9430000  -5.6150000  -3.5660000
  -2.1310000  -5.5630000  -6.4110000  -2.9370000  -5.2460000  -7.0720000
  -2.2650000  -6.6160000  -6.1610000  -0.7450000  -5.3330000  -7.0740000
   0.0080000  -5.3930000  -6.2880000  -0.7170000  -4.3170000  -7.4670000
  -0.4770000  -6.3600000  -8.2570000  -1.1210000  -6.2440000  -9.1290000
  -0.4800000  -7.3710000  -7.8500000   0.7940000  -6.1230000  -8.9380000
   0.6850000  -5.5030000  -9.7270000   2.0360000  -6.2100000  -8.6160000
   2.4280000  -6.7230000  -7.4940000   1.8330000  -7.3330000  -6.9520000
   3.4220000  -6.8100000  -7.3410000   2.9290000  -5.7950000  -9.4220000
   2.7330000  -5.5050000 -10.3690000   3.9210000  -5.9490000  -9.3080000
  -4.6350000  -4.2640000  -5.2580000  -4.3700000  -3.7090000  -6.0590000
  -6.0500000  -4.3660000  -4.8700000  -6.6880000  -4.3540000  -5.7540000
  -6.3220000  -5.2710000  -4.3270000  -6.3090000  -3.0330000  -4.0960000
  -6.1620000  -1.9870000  -4.6640000  -6.6800000  -3.2020000  -2.8420000
  -6.8300000  -4.1190000  -2.4470000  -6.8610000  -2.1210000  -1.8930000
  -6.9070000  -1.1500000  -2.3860000  -5.7410000  -2.1350000  -0.8300000
  -5.1570000  -3.1360000  -0.4970000  -8.1950000  -2.3220000  -1.0810000
  -8.4060000  -1.3430000  -0.6500000  -8.1150000  -3.1200000  -0.3430000
  -9.3930000  -2.7480000  -1.9330000 -10.0190000  -1.7120000  -2.7130000
  -9.5690000  -0.7330000  -2.6450000  -9.9260000  -4.0670000  -1.9380000
  -9.5360000  -4.8580000  -1.3140000 -10.9260000  -2.1550000  -3.6630000
 -11.2290000  -1.4800000  -4.4500000 -11.0740000  -4.3560000  -2.7410000
 -11.4410000  -5.3720000  -2.7600000 -11.4900000  -3.4670000  -3.6750000
 -12.1920000  -3.7420000  -4.4480000  -5.3370000  -0.9840000  -0.2540000
  -5.8320000  -0.1530000  -0.5450000  -4.2680000  -0.7550000   0.6160000
  -3.5410000  -0.0630000   0.1910000  -3.7470000  -1.6830000   0.8520000
  -4.8140000  -0.1370000   1.9180000  -5.8580000   0.5280000   1.9650000
  -3.8800000  -0.1530000   2.9050000  -3.0490000  -0.7030000   2.7390000
  -4.0270000   0.6770000   4.1150000  -5.0280000   0.5080000   4.5110000
  -3.9540000   1.7500000   3.9370000  -2.9630000   0.4290000   5.2090000
  -1.8210000   0.1060000   4.8650000  -3.3180000   0.4980000   6.4380000
  -4.2920000   0.6930000   6.6180000  -2.3840000   0.5900000   7.5520000
  -1.8460000   1.5130000   7.3380000  -1.3730000  -0.5250000   7.6710000
  -1.7960000  -1.6800000   7.6470000  -3.1350000   0.8530000   8.8680000
  -3.8170000   1.6720000   8.6380000  -3.6870000  -0.0740000   9.0240000
  -2.1990000   1.1480000   9.9890000  -1.3770000   0.4340000  10.0420000
  -1.8100000   2.1530000   9.8220000  -2.9490000   1.0970000  11.3010000
  -3.9230000   1.5810000  11.2350000  -3.1230000   0.0370000  11.4840000
  -2.0010000   1.6320000  12.4500000  -1.8070000   2.6880000  12.2630000
  -1.0430000   1.1110000  12.4410000  -2.6290000   1.5310000  13.7450000
  -3.5250000   1.9960000  13.7370000  -1.9240000   1.7540000  14.4320000
  -2.8550000   0.5600000  13.9100000  -0.0980000  -0.2600000   7.9170000
   0.1550000   0.7160000   7.9760000   0.9920000  -1.1820000   8.3140000
   0.5440000  -2.0510000   8.7960000   1.5150000  -0.7050000   9.1430000
   1.8670000  -1.6500000   7.1820000   3.0740000  -1.8630000   7.4070000
   1.3420000  -1.5480000   5.9240000   0.3660000  -1.3660000   5.7370000
   2.1670000  -1.7770000   4.7780000   2.6560000  -2.7230000   5.0080000
   1.5820000  -1.9390000   3.8720000   3.0170000  -0.5660000   4.5440000
   2.7690000   0.5220000   5.1510000   4.0320000  -0.7910000   3.7870000
   4.2470000  -1.7390000   3.5130000   5.1300000   0.2080000   3.4830000
   4.7420000   1.1830000   3.1890000   5.8370000   0.3780000   4.2950000
   6.0470000  -0.2180000   2.3580000   5.6430000  -1.1340000   1.6040000
   7.1950000   0.3740000   2.1420000   7.5820000   1.1720000   2.6270000
   7.9560000   0.0350000   0.8990000   7.4940000  -0.7720000   0.3310000
   8.9020000  -0.4280000   1.1790000   8.3730000   1.2690000  -0.0080000
   8.1900000   2.4490000   0.3800000   8.5860000   1.0670000  -1.2980000
   8.6620000   0.0940000  -1.5570000   8.5850000   2.0750000  -2.3610000
   9.2230000   2.8690000  -1.9730000   7.2890000   2.7130000  -2.6890000
   7.2570000   3.8180000  -3.1650000   9.2830000   1.4670000  -3.5300000
   8.8150000   0.5230000  -3.8090000   9.1420000   2.1530000  -4.3660000
  10.7500000   1.2210000  -3.2890000  10.8780000   0.6910000  -2.3450000
  11.2780000   2.1500000  -3.0730000  11.4090000   0.4740000  -4.3880000
  10.8010000   0.2820000  -5.4910000  12.4810000  -0.1620000  -4.1360000
   6.1640000   1.9670000  -2.5880000   6.4040000   0.9970000  -2.4410000
   4.7690000   2.3990000  -2.9300000   4.0720000   1.6300000  -2.5960000
   4.6840000   2.5570000  -4.0050000   4.2690000   3.6890000  -2.3060000
   4.5980000   4.0490000  -1.1840000   3.4570000   4.4140000  -3.0610000
   3.2850000   4.1970000  -4.0320000   2.5530000   5.4380000  -2.3970000
   3.1590000   6.2690000  -2.0360000   1.7970000   4.8800000  -1.1860000
   1.5780000   3.6750000  -1.0280000   1.5340000   5.9810000  -3.4880000
   0.8330000   6.6120000  -2.9420000   0.6680000   4.8290000  -4.1310000
   1.2190000   4.1660000  -4.7980000   0.1430000   4.2540000  -3.3680000
   2.2750000   6.8420000  -4.4720000   3.0820000   6.3570000  -5.0220000
   2.8080000   7.6380000  -3.9520000   1.6200000   7.1930000  -5.2700000
  -0.3910000   5.4560000  -5.0690000  -0.8110000   6.4270000  -4.8060000
  -1.2060000   4.7330000  -5.0560000   0.0080000   5.4670000  -6.0840000
   1.2600000   5.7670000  -0.4060000   1.6710000   6.6880000  -0.4510000
   0.4330000   5.3380000   0.7270000   1.0870000   4.6700000   1.2880000
   0.1830000   6.1720000   1.3830000  -0.9180000   4.6170000   0.5290000
  -1.4360000   4.5400000  -0.6070000  -1.4650000   4.1150000   1.6540000
  -0.9170000   4.0680000   2.5010000  -2.5970000   3.2910000   1.6690000
  -2.6990000   2.5990000   0.8340000  -2.5300000   2.6730000   2.5640000
  -3.9100000   4.0750000   1.7430000  -3.9230000   5.3280000   1.6940000
  -5.0310000   3.3560000   1.8540000  -4.9880000   2.3490000   1.9200000
  -6.4030000   3.9250000   1.5530000  -6.5180000   4.8880000   2.0500000
  -7.0470000   3.1870000   2.0320000  -6.6230000   4.1740000   0.0590000
  -7.6500000   3.8520000  -0.5750000  -5.5280000   4.6790000  -0.6160000
  -4.7660000   4.9610000  -0.0150000  -5.3550000   4.5310000  -2.0340000
  -6.3170000   4.5580000  -2.5460000  -4.9210000   3.1070000  -2.3060000
  -4.4300000   2.4400000  -1.3370000  -4.4230000   5.6060000  -2.6000000
  -3.4330000   5.3730000  -2.2090000  -4.2520000   5.4040000  -3.6570000
  -4.6840000   7.0850000  -2.4680000  -4.5360000   7.3790000  -1.4290000
  -3.7440000   7.7750000  -3.4690000  -2.7400000   7.4380000  -3.2090000
  -3.7550000   8.8380000  -3.2280000  -4.0260000   7.6340000  -4.5120000
  -6.0770000   7.4790000  -2.9010000  -6.2920000   8.5420000  -2.7940000
  -6.3010000   7.0940000  -3.8960000  -6.7920000   7.0820000  -2.1800000
  -5.1880000   2.6080000  -3.5010000  -5.4910000   3.2410000  -4.2270000
  -5.0720000   1.2180000  -3.9860000  -5.9860000   0.6380000  -3.8530000
  -4.2910000   0.7630000  -3.3770000  -4.8330000   1.1610000  -5.4760000
  -5.1810000   2.1050000  -6.1610000  -4.2780000  -0.0030000  -5.9850000
  -4.0500000  -0.7410000  -5.3340000  -4.0630000  -0.0980000  -7.4740000
  -5.0240000   0.0260000  -7.9740000  -3.3720000   0.7280000  -7.6430000
  -3.4740000  -1.4330000  -7.9510000  -3.2190000  -2.4060000  -7.1930000
  -3.0950000  -1.3920000  -9.2210000  -3.1310000  -0.5280000  -9.7430000
  -2.4870000  -2.5250000  -9.9800000  -2.9300000  -3.4610000  -9.6410000
  -1.0430000  -2.7810000  -9.7560000  -0.6650000  -3.8550000 -10.1360000
  -2.8630000  -2.3970000 -11.5010000  -2.4630000  -3.2960000 -11.9710000
  -3.9390000  -2.4860000 -11.6500000  -2.3680000  -1.1990000 -12.1270000
  -1.4150000  -1.2670000 -12.2130000  -0.2380000  -1.9250000  -9.1540000
  -0.5920000  -1.0720000  -8.7460000   1.2040000  -2.2540000  -8.8700000
   1.7650000  -1.4300000  -9.3120000   1.4500000  -3.2630000  -9.2020000
   1.4170000  -2.2120000  -7.3810000   0.4910000  -2.1320000  -6.6080000
   2.6530000  -2.4170000  -6.9160000   3.4440000  -2.4950000  -7.5390000
   2.9540000  -2.6000000  -5.5210000   2.2680000  -3.3390000  -5.1060000
   2.8450000  -1.2730000  -4.8510000   3.6960000  -0.3700000  -4.9550000
   4.3080000  -3.2800000  -5.3360000   5.0560000  -2.4960000  -5.2200000
   4.3620000  -3.7810000  -4.3700000   4.8180000  -4.2210000  -6.4260000
   5.0440000  -5.3820000  -6.0240000   5.1170000  -3.8880000  -7.6010000
   1.7370000  -1.1050000  -4.0610000   0.9300000  -1.7080000  -4.1250000
   1.5460000   0.1040000  -3.2600000   1.8670000   1.0030000  -3.7860000
   0.5310000   0.2280000  -2.8830000   2.3290000   0.0060000  -1.9810000
   3.2000000  -0.7930000  -1.7780000   1.9840000   0.8460000  -1.0220000
   1.3240000   1.5690000  -1.2710000   2.4910000   1.0480000   0.3380000
   3.1810000   1.8700000   0.5230000   3.0670000   0.1680000   0.6240000
   1.3750000   1.2570000   1.4280000   0.2130000   0.9040000   1.2040000
   1.7380000   1.7860000   2.5720000   2.6770000   2.0840000   2.7940000
   0.8420000   1.9790000   3.6470000   0.7910000   1.0250000   4.1720000
  -0.1610000   2.1580000   3.2590000   1.1840000   3.0530000   4.5970000
   2.2200000   3.7350000   4.3970000   0.4140000   3.2160000   5.7170000
  -0.3090000   2.5150000   5.7980000   0.5010000   4.2390000   6.7960000
   1.5070000   4.6600000   6.7900000   0.2530000   3.6930000   8.1990000
   0.1690000   2.4920000   8.3810000  -0.4710000   5.3730000   6.3640000
  -0.3560000   6.1710000   7.0970000  -0.1360000   5.7670000   5.4040000
  -1.9550000   4.9770000   6.3640000  -2.5830000   4.1220000   7.2190000
  -2.0840000   3.6300000   8.0420000  -3.0740000   5.5860000   5.5810000
  -3.9420000   4.0680000   6.9340000  -4.6670000   3.5400000   7.3990000
  -4.3080000   5.0720000   6.0880000  -3.1880000   6.5660000   4.5450000
  -2.2870000   7.0220000   4.1610000  -5.6100000   5.4260000   5.5470000
  -6.5190000   4.8990000   5.8000000  -4.4310000   7.0550000   4.1220000
  -4.5760000   7.8270000   3.3820000  -5.6040000   6.4440000   4.5980000
  -6.5660000   6.7340000   4.2030000   0.1440000   4.5200000   9.1310000
   1.3130000  -2.8750000   2.4570000   1.4570000  -1.5830000   1.9430000
   0.9210000  -1.2730000   0.7320000   1.0840000   0.0220000   0.2860000
   0.5720000   0.4090000  -0.9310000  -0.0950000  -0.5000000  -1.7160000
  -0.6330000  -0.0610000  -3.0080000  -1.6660000  -0.3880000  -3.2440000
  -0.0710000   0.8640000  -3.9600000   1.2780000   0.8930000  -4.1800000
   1.8150000   1.7690000  -5.0970000   1.0020000   2.6350000  -5.7890000
  -0.3610000   2.5950000  -5.5860000  -0.9090000   1.7010000  -4.6780000
  -0.2790000  -1.8060000  -1.2670000  -0.9560000  -2.6860000  -2.0220000
   0.2350000  -2.1800000  -0.0460000   1.3175000  -2.8349000   3.5563000
   0.3615000  -3.3039000   2.1096000   2.1467000  -3.5029000   2.1096000
   1.6267000   0.7498000   0.9071000   0.6967000   1.4462000  -1.2754000
   1.9381000   0.2130000  -3.6216000   2.9002000   1.7758000  -5.2767000
   1.4357000   3.3544000  -6.4993000  -1.0177000   3.2759000  -6.1473000
  -1.9981000   1.6572000  -4.5297000  -1.0869000  -3.6141000  -1.7032000
   0.0970000  -3.2111000   0.3114000
