
  392  0.0000000e+00
  22.8700000  10.7700000  -4.3200000  22.4900000  10.1100000  -3.6500000
  22.5200000  11.6800000  -4.0600000  23.8700000  10.8300000  -4.1800000
  22.4900000  10.4000000  -5.6700000  22.8500000   9.4100000  -5.9300000
  22.9600000  11.1300000  -6.3400000  21.0100000  10.4800000  -5.8900000
  20.2400000   9.5800000  -5.4700000  20.5200000  11.4400000  -6.6700000
  21.1800000  12.0200000  -7.1600000  19.0900000  11.6500000  -6.8700000
  18.6500000  11.6100000  -5.8800000  18.3800000  10.6600000  -7.7600000
  17.1100000  10.6000000  -7.6700000  18.7700000  13.0900000  -7.4800000
  17.7500000  13.2800000  -7.1500000  18.9000000  13.1500000  -8.5600000
  19.4200000  13.8300000  -7.0100000  19.0800000   9.6800000  -8.3800000
  20.0800000   9.7400000  -8.3300000  18.4200000   8.6200000  -9.1100000
  17.6000000   9.0900000  -9.6600000  17.7400000   7.6700000  -8.0300000
  16.5600000   7.4000000  -8.0600000  19.3600000   7.9200000 -10.1500000
  18.7600000   7.2000000 -10.7200000  20.2600000   7.4600000  -9.7300000
  19.6400000   8.6800000 -10.8800000  18.4800000   7.3900000  -6.9700000
  19.4300000   7.7400000  -6.9100000  18.1000000   6.5900000  -5.8100000
  17.6400000   5.7000000  -6.2200000  17.0400000   7.2200000  -4.9200000
  16.1600000   6.5200000  -4.4200000  19.3800000   6.1200000  -5.0400000
  19.1300000   5.8700000  -4.0000000  19.7700000   5.2600000  -5.5800000
  20.0900000   6.9500000  -5.0700000  16.9400000   8.5600000  -4.8700000
  17.5800000   9.1600000  -5.3700000  15.8000000   9.2800000  -4.1500000
  15.5700000   8.7700000  -3.2100000  14.5700000   9.1600000  -5.0600000
  13.5400000   8.9400000  -4.4600000  16.2500000  10.7100000  -3.8100000
  17.3000000  10.8100000  -3.5100000  15.6500000  11.1400000  -3.0100000
  15.9600000  11.2800000  -4.6900000  14.5900000   9.2000000  -6.4000000
  15.4800000   9.3900000  -6.8300000  13.4500000   9.0000000  -7.2100000
  12.6600000   9.6600000  -6.8700000  12.8400000   7.5600000  -7.1400000
  11.6800000   7.3000000  -7.2200000  13.7500000   9.4900000  -8.6300000
  14.6200000   8.9500000  -9.0100000  12.8800000   9.3800000  -9.2800000
  13.9700000  10.5400000  -8.4400000  13.7100000   6.5700000  -6.8900000
  14.7000000   6.7400000  -6.9400000  13.4200000   5.1700000  -6.6400000
  12.7000000   4.9000000  -7.4100000  12.8600000   4.8300000  -5.2100000
  11.8900000   4.0500000  -5.0200000  14.6800000   4.3400000  -6.9400000
  15.3100000   4.7400000  -7.7300000  15.2300000   4.1200000  -6.0200000
  14.3100000   3.4000000  -7.3600000  13.4300000   5.4000000  -4.1600000
  14.3000000   5.8700000  -4.3500000  12.9300000   5.4000000  -2.7400000
  12.8700000   4.4000000  -2.3100000  11.4700000   5.9400000  -2.5800000
  10.6100000   5.2400000  -2.0500000  13.9200000   6.2000000  -1.7900000
  13.5100000   6.2100000  -0.7800000  14.9000000   5.7400000  -1.9100000
  14.0500000   7.2500000  -2.0700000  11.2400000   7.1500000  -3.1000000
  12.0200000   7.7100000  -3.4000000   9.9100000   7.8400000  -3.3500000
   9.4400000   8.0800000  -2.3900000   8.8800000   6.9000000  -4.0300000
   7.9800000   6.3600000  -3.3200000  10.1000000   9.1900000  -4.0500000
  10.6300000   9.0400000  -4.9900000  10.8700000  10.0700000  -3.0300000
  10.2300000  10.3000000  -2.1800000  11.6800000   9.5200000  -2.5500000
   8.7800000   9.8200000  -4.4300000   8.0800000   9.9700000  -3.6100000
   8.2700000   9.2200000  -5.1900000   8.9600000  10.7800000  -4.9200000
  11.3800000  11.4000000  -3.5300000  11.7000000  11.9900000  -2.6700000
  12.3100000  11.2700000  -4.0900000  10.6600000  11.9500000  -4.1400000
   9.0900000   6.5600000  -5.3100000   9.9000000   6.9200000  -5.8000000
   8.2400000   5.6300000  -6.0000000   7.2300000   6.0600000  -6.0400000
   7.9800000   4.1800000  -5.3100000   6.9000000   3.6600000  -5.3500000
   8.7800000   5.3800000  -7.4600000   9.1100000   6.3400000  -7.8700000
   7.9800000   4.8600000  -7.9900000   9.5800000   4.6400000  -7.4200000
   8.9800000   3.5600000  -4.6600000   9.9100000   3.9600000  -4.7200000
   8.7800000   2.3300000  -3.9400000   8.2300000   1.6300000  -4.5800000
   8.0200000   2.4400000  -2.6900000   7.0800000   1.6900000  -2.4700000
  10.1300000   1.7200000  -3.6700000  10.0000000   0.8100000  -3.0800000
  10.5600000   1.5100000  -4.6400000  10.8300000   2.3100000  -3.0700000
   8.2900000   3.4500000  -1.8600000   8.8900000   4.2000000  -2.1700000
   7.4800000   3.6400000  -0.7300000   7.4900000   2.7500000  -0.1100000
   6.0600000   4.1900000  -0.9700000   5.1100000   3.9700000  -0.2000000
   8.2400000   4.6900000   0.1000000   8.4300000   5.5400000  -0.5500000
   7.6600000   4.8700000   1.0100000   9.2300000   4.2800000   0.3000000
   5.8500000   4.7600000  -2.1500000   6.6600000   5.0700000  -2.6700000
   4.5100000   5.0600000  -2.6800000   3.8700000   5.5400000  -1.9500000
   3.7600000   3.8800000  -3.2000000   2.5700000   3.8400000  -2.9800000
   4.6900000   6.0800000  -3.8500000   5.0700000   7.0300000  -3.4700000
   3.8100000   6.3100000  -4.4400000   5.4100000   5.6500000  -4.5500000
   4.4700000   2.8900000  -3.7700000   5.4800000   2.9500000  -3.6800000
   3.8000000   1.5800000  -4.0600000   2.8600000   1.6900000  -4.6200000
   3.3600000   0.8600000  -2.7600000   2.2800000   0.2700000  -2.7600000
   4.8600000   0.7500000  -4.7700000   4.9600000   1.1100000  -5.7900000
   4.4900000  -0.2800000  -4.8000000   5.8600000   0.8800000  -4.3400000
   4.2000000   0.8200000  -1.7100000   5.0500000   1.3700000  -1.7900000
   3.8100000   0.3200000  -0.3800000   3.5600000  -0.7200000  -0.6100000
   2.5900000   1.0600000   0.1800000   1.7800000   0.4700000   0.9400000
   5.0300000   0.3400000   0.5000000   4.7100000   0.1400000   1.5200000
   5.6900000  -0.4500000   0.1400000   5.4700000   1.3300000   0.5400000
   2.5500000   2.3800000  -0.0500000   3.4000000   2.8800000  -0.2700000
   1.4700000   3.1500000   0.4400000   1.4400000   3.0600000   1.5300000
   0.1900000   2.6100000  -0.1500000  -0.7600000   2.3300000   0.5300000
   1.7100000   4.6000000   0.0700000   2.6900000   4.8800000   0.4500000
   0.9500000   5.1800000   0.5900000   1.6900000   4.8500000  -0.9900000
   0.2200000   2.4000000  -1.4700000   1.1000000   2.5900000  -1.9300000
  -0.9200000   1.9200000  -2.1900000  -1.8000000   2.5100000  -1.9400000
  -1.1600000   0.4400000  -1.7600000  -2.3000000   0.1900000  -1.3700000
  -0.6400000   1.9800000  -3.7400000  -0.1200000   2.9300000  -3.8800000
   0.0300000   1.2200000  -4.1500000  -1.5300000   2.0100000  -4.3600000
  -0.1800000  -0.4300000  -1.7400000   0.6600000  -0.1500000  -2.2300000
  -0.3300000  -1.7600000  -1.2500000  -1.1300000  -2.2200000  -1.8300000
  -0.8500000  -1.8400000   0.1900000  -1.5300000  -2.7800000   0.4100000
   0.9600000  -2.5600000  -1.4500000   0.8400000  -3.5900000  -1.1100000
   1.2500000  -2.5800000  -2.5000000   1.6800000  -2.0700000  -0.7900000
  -0.6400000  -0.8600000   1.0900000  -0.0800000  -0.0600000   0.8400000
  -1.1800000  -0.9900000   2.4900000  -1.1000000  -2.0200000   2.8400000
  -2.6100000  -0.5700000   2.5500000  -3.4100000  -1.1300000   3.2500000
  -0.2800000  -0.1200000   3.3500000   0.7200000  -0.4900000   3.1500000
  -0.4800000  -0.1700000   4.4200000  -0.4700000   0.9100000   3.0500000
  -2.9200000   0.5300000   1.8100000  -2.1500000   0.9100000   1.2800000
  -4.3100000   0.9800000   1.5100000  -4.7500000   1.1900000   2.4900000
  -5.1900000  -0.1100000   0.9200000  -6.2800000  -0.3800000   1.4800000
  -4.2000000   2.3300000   0.7600000  -3.7800000   2.1700000  -0.2300000
  -3.6200000   3.0900000   1.2900000  -5.2200000   2.6900000   0.6100000
  -4.7900000  -0.6500000  -0.2100000  -3.8800000  -0.3400000  -0.5200000
  -5.3100000  -1.8000000  -0.8700000  -6.1900000  -1.5100000  -1.4500000
  -5.6500000  -2.8700000   0.1600000  -6.7500000  -3.4000000   0.2200000
  -4.4600000  -2.4200000  -2.0000000  -3.4600000  -2.6300000  -1.6000000
  -4.2200000  -1.7000000  -2.7900000  -4.9200000  -3.3000000  -2.4500000
  -4.7200000  -3.2900000   1.0000000  -3.8100000  -2.8400000   0.9600000
  -4.9100000  -4.2900000   1.9900000  -5.4600000  -5.0700000   1.4500000
  -5.8000000  -3.8800000   3.1600000  -6.4700000  -4.6900000   3.7400000
  -3.5600000  -4.8200000   2.4100000  -3.7200000  -5.5900000   3.1700000
  -2.9600000  -4.0000000   2.8100000  -3.1200000  -5.3500000   1.5600000
  -5.9200000  -2.5900000   3.4800000  -5.2700000  -1.9600000   3.0300000
  -6.9100000  -2.0600000   4.4600000  -7.1000000  -2.8300000   5.2200000
  -8.3500000  -2.0100000   3.8600000  -9.3700000  -2.3600000   4.5100000
  -6.5400000  -0.6600000   4.9500000  -6.1300000  -0.0500000   4.1500000
  -5.8600000  -0.8400000   5.7800000  -7.3700000  -0.1000000   5.4000000
  -8.5100000  -1.5800000   2.5500000  -7.6600000  -1.2700000   2.1000000
  -9.7600000  -1.6000000   1.8600000 -10.5200000  -1.1400000   2.5000000
 -10.2000000  -3.0900000   1.6800000 -11.3900000  -3.4000000   1.6600000
  -9.4600000  -0.7900000   0.4800000  -9.1400000   0.2200000   0.7500000
 -10.3900000  -0.6100000  -0.0500000  -8.7300000  -1.2500000  -0.1900000
  -9.1700000  -4.0200000   1.5900000  -8.2000000  -3.7400000   1.5700000
  -9.5000000  -5.4500000   1.2900000 -10.2700000  -5.4800000   0.5200000
 -10.0600000  -6.2600000   2.5400000 -10.9600000  -7.1200000   2.5200000
  -8.2000000  -6.1500000   0.8200000  -7.9300000  -5.7600000  -0.1500000
  -8.3800000  -7.2100000   0.6300000  -7.4100000  -6.0800000   1.5700000
  -9.4400000  -5.8700000   3.6200000  -8.7000000  -5.2000000   3.5400000
  -9.7400000  -6.3200000   4.9600000  -9.5900000  -7.4000000   5.0000000
 -11.1800000  -5.8700000   5.3900000 -11.9500000  -6.6200000   5.9700000
  -8.5800000  -5.7700000   5.8600000  -8.3900000  -4.7200000   5.6400000
  -7.6400000  -6.3100000   5.7000000  -8.9000000  -5.8400000   6.9000000
 -11.4300000  -4.6400000   4.9500000 -10.7100000  -4.1900000   4.4000000
 -12.7000000  -4.0000000   5.2600000 -12.9600000  -4.0900000   6.3200000
 -13.8400000  -4.7500000   4.4000000 -14.8200000  -5.2100000   4.9700000
 -12.6400000  -2.4600000   4.9700000 -13.6200000  -2.0700000   5.2600000
 -11.9100000  -1.9700000   5.6100000 -12.5100000  -2.3600000   3.8900000
 -13.6300000  -4.8200000   3.0400000 -12.9000000  -4.2800000   2.6000000
 -14.5000000  -5.5900000   2.1800000 -15.4700000  -5.1100000   2.1200000
 -14.7400000  -7.0000000   2.7500000 -15.8800000  -7.4500000   2.6500000
 -13.9900000  -5.6400000   0.7300000 -13.8000000  -4.6200000   0.3900000
 -14.7400000  -5.9700000   0.0100000 -13.1500000  -6.3300000   0.6900000
 -13.7500000  -7.6700000   3.3600000 -12.7900000  -7.3600000   3.3100000
 -13.9600000  -9.0100000   3.8900000 -14.6100000  -9.5900000   3.2300000
 -14.7100000  -8.9800000   5.2200000 -15.5100000  -9.9700000   5.3400000
 -12.6200000  -9.8100000   4.0000000 -12.9200000 -10.8400000   4.1900000
 -12.0300000  -9.7400000   3.0900000 -12.0000000  -9.5400000   4.8600000
 -14.4200000  -8.0300000   6.1000000 -13.8100000  -7.2800000   5.8100000
 -15.2600000  -7.8500000   7.2800000 -15.4500000  -8.7900000   7.8100000
 -16.7300000  -7.4900000   7.0400000 -17.5800000  -7.8100000   7.9000000
 -14.6000000  -6.9900000   8.3400000 -14.9500000  -7.2800000   9.3200000
 -14.7200000  -5.9300000   8.0900000 -13.5400000  -7.2400000   8.3700000
 -16.9600000  -6.8700000   5.9100000 -16.1400000  -6.7400000   5.3300000
 -18.3200000  -6.5100000   5.4700000 -18.7900000  -6.0900000   6.3500000
 -19.1000000  -7.7900000   5.0100000 -20.2700000  -7.9900000   5.1700000
 -18.2700000  -5.3900000   4.3000000 -19.1700000  -5.4300000   3.6900000
 -17.3700000  -5.6300000   3.7400000 -18.0700000  -4.0300000   4.8900000
 -17.2900000  -4.1400000   5.6500000 -17.5300000  -3.0200000   3.8500000
 -16.9400000  -3.4900000   3.0600000 -16.9100000  -2.3200000   4.4000000
 -18.4100000  -2.5700000   3.3800000 -19.3900000  -3.5000000   5.5100000
 -19.8300000  -4.1600000   6.2600000 -20.1600000  -3.3300000   4.7600000
 -19.2200000  -2.5400000   5.9900000 -18.3200000  -8.7400000   4.4400000
 -17.3300000  -8.5500000   4.4700000 -18.8800000  -9.9600000   3.7400000
 -19.7600000  -9.6100000   3.2000000 -19.3300000 -11.1400000   4.6300000
 -20.1600000 -11.9500000   4.2600000 -17.8000000 -10.4000000   2.6800000
 -17.3600000  -9.6300000   2.0600000 -18.3200000 -11.1400000   2.0800000
 -16.9600000 -10.8500000   3.2200000 -18.8100000 -11.2400000   5.9100000
 -18.1200000 -10.5500000   6.1600000 -19.2200000 -12.1000000   7.0200000
 -19.5600000 -13.0600000   6.6100000 -20.4600000 -11.4500000   7.6500000
 -21.4400000 -12.2200000   7.6700000 -18.0800000 -12.3400000   8.0000000
 -17.3300000 -13.0300000   7.6100000 -18.4500000 -12.8500000   8.8900000
 -17.5100000 -11.4300000   8.2100000 -20.4500000 -10.3600000   8.2400000
  -2.8250000  -2.4330000   5.9310000  -1.3130000  -2.7230000   5.9150000
  -0.6070000  -1.7330000   5.0240000   0.9020000  -2.0090000   4.9120000
   1.1760000  -3.1820000   4.0160000   1.7620000  -2.6650000   2.7170000
   1.4480000  -3.6670000   1.5380000   2.0170000  -4.1700000   4.6940000
   1.6490000  -5.5430000   4.6030000   2.5000000  -6.3880000   4.7680000
   0.2550000  -5.9670000   4.2430000  -0.7230000  -6.2620000   5.1570000
  -2.1340000  -6.5380000   4.6970000  -2.3690000  -7.0850000   3.4520000
  -3.6890000  -7.2980000   3.0650000  -4.7740000  -6.9830000   3.8730000
  -6.0820000  -7.1790000   3.4390000  -6.2900000  -8.3420000   2.6270000
  -4.5060000  -6.4190000   5.0960000  -3.1890000  -6.1970000   5.5210000
  -3.1744950  -2.3659672   6.9718457  -3.0211982  -1.4808536   5.4162928
  -3.3595573  -3.2449882   5.4162928  -0.9155793  -2.6407752   6.9373971
  -1.1445829  -3.7394166   5.5296002  -1.0502593  -1.7853450   4.0186238
  -0.7309017  -0.7354431   5.4706863   1.3996028  -1.1188971   4.4995582
   1.2884680  -2.2404036   5.9155412   0.2458043  -3.7166642   3.7733683
   1.3226776  -1.6833833   2.4858624   2.8525169  -2.5727403   2.8277299
   1.1434857  -4.6387303   1.9539462   0.6338229  -3.2616193   0.9193062
   2.3479191  -3.7987712   0.9193062   0.0015077  -6.0462232   3.1755426
  -0.4788884  -6.2977233   6.2289764  -1.5354200  -7.3457266   2.7832953
  -3.8816205  -7.7356329   2.0743564  -6.4466170  -9.2176997   3.2740094
  -7.1756076  -8.1922158   1.9919695  -5.4073748  -8.5084603   1.9919695
  -5.3405387  -6.1361528   5.7544395  -2.9959113  -5.7522724   6.5083875
