
  542  0.0000000e+00
  17.5800000   8.0900000 -11.6600000  17.8500000   8.7900000 -12.3400000
  16.7500000   8.3600000 -11.1500000  17.6000000   7.1900000 -12.1200000
  18.7300000   7.9600000 -10.6900000  19.5100000   7.4100000 -11.2200000
  18.3300000   7.0400000  -9.5300000  17.5000000   6.1900000  -9.8400000
  19.4000000   9.2500000 -10.2400000  20.4000000   9.2000000  -9.7900000
  18.7200000   9.6600000  -9.4900000  19.5700000  10.2000000 -11.4100000
  20.2100000   9.9100000 -12.2400000  18.6200000  10.3600000 -11.9100000
  20.0700000  11.5300000 -11.0000000  20.2200000  12.0800000 -11.9300000
  21.1000000  11.5000000 -10.6300000  19.1300000  12.3000000 -10.2300000
  18.3100000  11.8700000  -9.8300000  19.3200000  13.4700000  -9.7800000
  20.2300000  14.3200000 -10.2100000  20.7600000  14.1100000 -11.0500000
  20.2500000  15.2800000  -9.9300000  18.4200000  13.9400000  -8.9400000
  17.9500000  13.1700000  -8.5000000  18.2500000  14.8300000  -8.5000000
  18.7200000   7.1700000  -8.2900000  19.4800000   7.7800000  -8.0100000
  18.1000000   6.3700000  -7.1900000  18.0600000   5.3100000  -7.4400000
  16.5900000   6.6400000  -6.9200000  15.8400000   5.7800000  -6.5300000
  18.9100000   6.4700000  -5.9000000  19.9000000   6.1100000  -6.1900000
  18.9200000   7.5400000  -5.7200000  18.3900000   5.7300000  -4.6700000
  17.3800000   6.1000000  -4.4900000  19.1700000   6.1600000  -3.4700000
  19.2700000   7.2500000  -3.4700000  20.1800000   5.7800000  -3.5900000
  18.7300000   5.7100000  -2.5800000  18.3300000   4.1600000  -4.6500000
  17.9300000   3.9200000  -5.6400000  17.8100000   3.7900000  -3.7700000
  19.3700000   3.8300000  -4.6400000  16.2300000   7.8500000  -7.2400000
  16.8300000   8.4200000  -7.8200000  14.8900000   8.3400000  -6.9600000
  14.5800000   8.0800000  -5.9500000  13.9000000   7.8100000  -7.9800000
  12.7100000   7.6700000  -7.6700000  14.9200000   9.8700000  -6.7200000
  15.8200000  10.0800000  -6.1400000  14.1000000  10.1200000  -6.0400000
  14.8600000  10.7000000  -8.0600000  14.5800000  11.7200000  -7.8000000
  14.0100000  10.2800000  -8.5900000  16.2300000  10.5000000  -8.8800000
  16.2100000   9.4700000  -9.5400000  17.1500000  11.2900000  -8.7000000
  14.3500000   7.5600000  -9.2200000  15.2900000   7.8200000  -9.4700000
  13.6300000   6.8900000 -10.2500000  12.6900000   7.3800000 -10.5000000
  14.2400000   6.7600000 -11.1400000  13.1400000   5.5100000  -9.6800000
  12.3500000   4.8400000 -10.3200000  13.7100000   5.0000000  -8.5000000
  14.5200000   5.5000000  -8.1700000  13.6200000   3.5900000  -8.0300000
  12.7400000   3.1800000  -8.5200000  13.3300000   3.4900000  -6.5200000
  12.5400000   2.6500000  -6.0900000  14.6600000   2.5200000  -8.5700000
  14.7300000   2.6600000  -9.6400000  14.0500000   1.1200000  -8.5100000
  13.1100000   1.1400000  -9.0700000  13.6700000   0.9200000  -7.5100000
  16.0200000   2.7000000  -7.9200000  16.3900000   3.7300000  -7.9500000
  16.8400000   2.1400000  -8.3700000  16.0600000   2.5400000  -6.8400000
  14.9000000  -0.0100000  -9.1600000  15.8800000  -0.0800000  -8.6800000
  14.8400000   0.1500000 -10.2400000  14.2500000  -0.8500000  -8.9300000
  13.8700000   4.3500000  -5.5800000  14.6600000   4.9100000  -5.8500000
  13.5300000   4.2400000  -4.1500000  13.6700000   3.1800000  -3.9300000
  12.1300000   4.7000000  -3.7800000  11.4500000   4.2600000  -2.8400000
  14.6000000   5.1700000  -3.4400000  15.4900000   4.7800000  -3.9300000
  14.5900000   6.2400000  -3.6600000  14.7800000   4.9600000  -1.9200000
  13.9900000   5.4900000  -1.4100000  14.7300000   3.4900000  -1.5100000
  15.3200000   2.8500000  -2.1700000  15.2700000   3.3700000  -0.5700000
  13.7300000   3.0700000  -1.4900000  16.1400000   5.4500000  -1.5400000
  16.9000000   4.7200000  -1.8200000  16.3600000   6.3400000  -2.1400000
  16.2600000   5.5600000  -0.4700000  11.5700000   5.6800000  -4.5800000
  12.1200000   6.2200000  -5.2300000  10.1500000   6.0600000  -4.6000000
   9.9600000   6.1400000  -3.5300000   9.1200000   5.0000000  -5.0400000
   8.4100000   4.4500000  -4.2600000   9.9700000   7.5000000  -5.2600000
  10.8000000   8.1600000  -4.9800000   9.9500000   7.3400000  -6.3300000
   8.7200000   8.2900000  -4.9300000   8.2800000   8.2800000  -3.7500000
   8.1800000   8.9500000  -5.8900000   9.1600000   4.5200000  -6.2600000
   9.8100000   4.9500000  -6.9100000   8.3100000   3.3700000  -6.7900000
   7.2800000   3.7000000  -6.7300000   8.4200000   2.0500000  -5.9800000
   7.4400000   1.3500000  -5.8900000   8.4900000   3.0800000  -8.2600000
   7.7800000   2.3400000  -8.6500000   9.3500000   2.4500000  -8.4600000
   8.4500000   4.3100000  -9.1300000   7.6800000   4.3600000 -10.1400000
   9.4100000   5.1400000  -8.9700000   9.6300000   1.6300000  -5.5400000
  10.4100000   2.2500000  -5.7200000   9.8300000   0.4400000  -4.7100000
   9.5200000  -0.5200000  -5.1400000   9.0200000   0.5100000  -3.3900000
   8.7400000  -0.4800000  -2.7300000  11.3100000   0.1600000  -4.4300000
  11.4700000  -0.7700000  -3.8900000  11.9500000  -0.0100000  -5.3000000
  11.9100000   1.2300000  -3.7100000  12.2300000   1.8000000  -4.4000000
   8.8100000   1.7400000  -2.8800000   9.2400000   2.4600000  -3.4400000
   8.0000000   2.1000000  -1.6700000   7.9600000   1.2900000  -0.9500000
   6.5500000   2.1500000  -2.0100000   5.6300000   1.6900000  -1.2300000
   8.5300000   3.3800000  -0.9300000   9.5500000   3.5500000  -1.2600000
   8.6300000   2.9900000   0.4500000   9.5600000   2.7600000   0.5300000
   7.8200000   4.6900000  -1.0100000   7.9800000   5.2100000  -1.9600000
   8.2700000   5.3600000  -0.2700000   6.7600000   4.5300000  -0.8300000
   6.2200000   2.6500000  -3.1900000   6.9400000   3.1200000  -3.7100000
   4.7900000   2.6700000  -3.6300000   4.2700000   3.1000000  -2.7700000
   4.1700000   1.3000000  -3.8600000   3.0000000   1.0600000  -3.5000000
   4.6900000   3.6100000  -4.8100000   5.4000000   4.4200000  -4.6300000
   4.9800000   3.0400000  -5.6900000   3.3500000   4.2100000  -5.1300000
   2.8300000   5.2600000  -4.4000000   3.3900000   5.4900000  -3.5100000
   2.7800000   3.7800000  -6.3300000   3.2200000   3.0500000  -6.9900000
   1.8300000   6.0600000  -4.9000000   1.3800000   6.8400000  -4.3100000
   1.6600000   4.5300000  -6.8500000   1.1900000   4.3900000  -7.8100000
   1.1800000   5.6300000  -6.1200000   0.0700000   6.3000000  -6.4200000
   0.2000000   7.2500000  -6.4900000   4.9800000   0.3700000  -4.3500000
   5.9200000   0.6400000  -4.5800000   4.6400000  -1.0400000  -4.3800000
   3.7300000  -1.2000000  -4.9600000   4.2100000  -1.5400000  -2.9500000
   3.2500000  -2.3000000  -2.8100000   5.8500000  -1.8000000  -4.9800000
   6.6000000  -1.7100000  -4.2000000   6.0400000  -1.3600000  -5.9600000
   5.8300000  -3.3300000  -5.1600000   5.1500000  -3.6600000  -4.3800000
   6.8100000  -3.6600000  -4.8200000   5.4600000  -4.0000000  -6.5000000
   6.2200000  -3.9400000  -7.2800000   4.5000000  -3.7200000  -6.9200000
   5.4700000  -5.4700000  -6.2000000   4.8700000  -5.7600000  -5.3300000
   4.9200000  -5.9800000  -6.9900000   6.7500000  -6.0400000  -5.9100000
   6.6500000  -6.9000000  -5.3800000   7.3500000  -5.5100000  -5.3000000
   7.2800000  -6.2300000  -6.7400000   4.8500000  -1.0600000  -1.8800000
   5.5700000  -0.4100000  -2.1300000   4.6500000  -1.4600000  -0.4800000
   4.4900000  -2.5200000  -0.6200000   3.4300000  -0.8700000   0.2000000
   2.5800000  -1.6000000   0.6700000   5.9400000  -1.2500000   0.3200000
   5.8000000  -1.7000000   1.3000000   6.7900000  -1.7200000  -0.1700000
   6.1500000  -0.1800000   0.3200000   3.1700000   0.4700000   0.0700000
   3.9500000   1.0200000  -0.2700000   1.9400000   1.2700000   0.3900000
   1.8100000   1.3100000   1.4800000   0.6000000   0.6800000  -0.2300000
  -0.2800000   0.2800000   0.5200000   2.1200000   2.7200000  -0.0100000
   2.6600000   2.7200000  -0.9600000   3.1400000   3.4000000   0.9700000
   2.7500000   3.5500000   1.9700000   3.9600000   2.6900000   1.1000000
   0.9400000   3.6500000  -0.3100000   0.5400000   4.2500000   0.5100000
   1.2400000   4.3900000  -1.0500000   0.0000000   3.2000000  -0.6400000
   3.7400000   4.7300000   0.4400000   3.4400000   5.5800000   1.0600000
   4.8000000   4.7800000   0.7100000   3.6700000   4.8300000  -0.6400000
   0.6000000   0.5300000  -1.5700000   1.4200000   0.8000000  -2.1000000
  -0.6300000   0.0900000  -2.3800000  -1.4200000   0.8300000  -2.2200000
  -1.1800000  -1.2700000  -1.9100000  -2.3900000  -1.5700000  -2.0100000
  -0.2300000  -0.0800000  -3.8600000   0.2400000   0.8300000  -4.2300000
  -1.1200000  -0.4500000  -4.3800000   0.8100000  -1.0100000  -3.8900000
   1.6300000  -0.5200000  -3.7900000  -0.2500000  -2.0900000  -1.4500000
   0.6900000  -1.7400000  -1.4200000  -0.4800000  -3.4800000  -1.0600000
  -1.1900000  -3.9400000  -1.7500000  -0.9200000  -3.6100000   0.3900000
  -1.6600000  -4.5300000   0.6600000   0.7300000  -4.3500000  -1.3900000
   0.4400000  -5.4000000  -1.3400000   1.0400000  -4.1500000  -2.4200000
   1.8400000  -4.1900000  -0.5300000   2.0000000  -3.2400000  -0.5100000
  -0.4800000  -2.7100000   1.2500000   0.0700000  -1.9100000   0.9800000
  -1.0700000  -2.7100000   2.6200000  -1.1300000  -3.7400000   2.9600000
  -2.4600000  -2.1700000   2.6600000  -3.3600000  -2.8500000   3.2400000
  -0.2600000  -1.8100000   3.5500000   0.0800000  -0.8700000   3.1200000
  -0.8200000  -1.6600000   4.4700000   0.8600000  -2.6700000   4.0600000
   0.5600000  -3.8700000   4.8000000  -0.4700000  -4.1800000   4.9500000
   2.1400000  -2.2800000   3.7900000   2.3600000  -1.3400000   3.3100000
   1.6100000  -4.6300000   5.2800000   1.3800000  -5.5700000   5.7700000
   3.2100000  -3.1300000   4.1600000   4.2100000  -2.8200000   3.9200000
   2.9400000  -4.2900000   4.9400000   3.8000000  -4.8800000   5.1800000
  -2.6900000  -1.1600000   1.8900000  -1.9400000  -0.7700000   1.3300000
  -4.0400000  -0.7300000   1.4500000  -4.5700000  -0.3900000   2.3400000
  -4.9200000  -1.7900000   0.8500000  -6.0700000  -1.7600000   1.2000000
  -3.8100000   0.4300000   0.5500000  -4.5700000   0.4700000  -0.2300000
  -2.8000000   0.3400000   0.1500000  -3.9300000   1.6700000   1.4200000
  -2.9900000   2.6000000   1.6600000  -1.9900000   2.4900000   1.2600000
  -5.1300000   2.1900000   2.1600000  -3.4800000   3.6600000   2.4000000
  -2.9200000   4.4700000   2.6200000  -4.7200000   3.3500000   2.8900000
  -6.3600000   1.6900000   2.4900000  -6.6100000   0.7600000   2.0100000
  -5.5700000   4.0400000   3.7400000  -5.3000000   5.0000000   4.1600000
  -7.1600000   2.2500000   3.4700000  -8.1500000   1.8200000   3.6000000
  -6.8100000   3.4500000   4.0900000  -7.4000000   3.9300000   4.8600000
  -4.4300000  -2.6900000  -0.0200000  -3.5300000  -2.4800000  -0.4300000
  -5.3300000  -3.6300000  -0.7100000  -6.1400000  -3.0800000  -1.1900000
  -5.9100000  -4.7800000   0.2900000  -7.0800000  -4.9900000   0.3200000
  -4.5500000  -4.1400000  -1.9400000  -3.5400000  -4.3900000  -1.6200000
  -4.4200000  -3.3400000  -2.6600000  -5.1800000  -5.2900000  -2.8900000
  -4.6600000  -5.2500000  -3.8500000  -6.2300000  -5.0800000  -3.0500000
  -4.9700000  -6.7300000  -2.4400000  -5.5100000  -7.6100000  -3.2000000
  -4.4200000  -7.0900000  -1.3800000  -5.1100000  -5.3300000   1.2400000
  -4.1400000  -5.0700000   1.2500000  -5.5000000  -6.1000000   2.3400000
  -6.1700000  -6.8400000   1.9000000  -6.4400000  -5.3800000   3.4200000
  -7.4000000  -5.8500000   4.0400000  -4.3100000  -6.7600000   3.0000000
  -3.7200000  -7.2500000   2.2200000  -3.6800000  -5.9400000   3.3600000
  -4.7600000  -7.7300000   4.1000000  -4.8800000  -7.1200000   4.9900000
  -5.7700000  -8.0600000   3.8600000  -3.8200000  -8.9100000   4.2600000
  -3.8400000  -9.4700000   3.3200000  -2.7800000  -8.5800000   4.3200000
  -4.0300000  -9.9200000   5.4400000  -3.3600000 -10.7600000   5.2500000
  -5.0400000 -10.3300000   5.4800000  -3.6700000  -9.3300000   6.7800000
  -4.2300000  -9.7600000   7.5100000  -2.6900000  -9.5300000   6.9200000
  -3.7400000  -8.3300000   6.8600000  -5.9900000  -4.1800000   3.8800000
  -5.1900000  -3.7600000   3.4300000  -6.8700000  -3.2000000   4.6100000
  -7.0800000  -3.4500000   5.6500000  -8.2200000  -3.1400000   3.9000000
  -9.2500000  -3.0700000   4.5600000  -6.2000000  -1.8800000   4.7200000
  -5.1600000  -1.8400000   5.0400000  -6.1600000  -1.4200000   3.7300000
  -7.0100000  -0.9400000   5.5800000  -7.8600000  -0.6200000   4.9600000
  -7.3300000  -1.5800000   6.4000000  -6.3200000   0.3400000   6.1000000
  -6.8800000   1.2700000   5.9900000  -5.4100000   0.5300000   5.5200000
  -5.8000000   0.4700000   7.4800000  -5.6100000  -0.4100000   7.9400000
  -5.0300000   1.5000000   7.9800000  -4.9000000   2.7000000   7.5700000
  -5.3100000   3.0700000   6.7200000  -4.3800000   3.4700000   7.9800000
  -4.3400000   1.2700000   8.9800000  -4.2500000   0.3400000   9.3700000
  -4.0500000   2.0000000   9.6100000  -8.3300000  -2.8900000   2.5800000
  -7.4600000  -2.8900000   2.0800000  -9.6800000  -2.7800000   1.9200000
 -10.2900000  -2.1000000   2.5100000 -10.4200000  -4.1200000   2.0800000
 -11.6300000  -4.0600000   2.0700000  -9.6400000  -2.2500000   0.4600000
  -8.7500000  -2.5800000  -0.0800000  -9.5300000  -0.7200000   0.5300000
  -8.6300000  -0.3400000   1.0200000 -10.4400000  -0.3700000   1.0300000
 -10.8300000  -2.8100000  -0.3900000 -10.7300000  -2.3700000  -1.3800000
 -11.7900000  -2.4500000  -0.0300000 -10.7500000  -3.8800000  -0.5900000
  -9.5600000   0.0000000  -0.8100000  -8.5900000  -0.3200000  -1.2100000
  -9.7200000   1.0700000  -0.6500000 -10.4800000  -0.3200000  -1.2800000
  -9.7500000  -5.2700000   2.1600000  -8.7600000  -5.2700000   1.9400000
 -10.3300000  -6.5400000   2.2100000 -11.0800000  -6.5600000   1.4200000
 -10.9600000  -6.8300000   3.5300000 -11.9500000  -7.5600000   3.6500000
  -9.2300000  -7.5300000   1.8500000  -8.3400000  -7.2600000   2.4100000
  -9.5900000  -8.5000000   2.2100000  -9.0500000  -7.5000000   0.3100000
  -9.9400000  -8.0100000  -0.0700000  -8.9400000  -6.4700000  -0.0300000
  -7.8900000  -8.3600000  -0.0100000  -7.8900000  -9.2400000   0.6400000
  -6.9500000  -7.8300000   0.1600000  -7.7800000  -8.9100000  -1.4300000
  -8.7200000  -9.3600000  -1.7500000  -7.6900000  -8.1100000  -2.1600000
  -6.6700000  -9.8200000  -1.6200000  -5.8300000  -9.6400000  -1.0900000
  -7.0000000 -10.7800000  -1.5800000  -6.3800000  -9.7000000  -2.5700000
 -10.4900000  -6.1600000   4.5500000  -9.7100000  -5.5400000   4.3700000
 -10.9800000  -6.2900000   5.9100000 -11.4600000  -7.2500000   6.1100000
 -11.9900000  -5.1900000   6.3200000 -13.0100000  -5.4800000   6.9500000
  -9.8300000  -6.3500000   6.9400000 -10.2200000  -6.4800000   7.9400000
  -9.3400000  -5.3800000   7.0100000  -8.9000000  -7.4000000   6.5600000
  -9.0700000  -8.1600000   7.1200000 -11.7600000  -3.9200000   5.8400000
 -10.8600000  -3.7800000   5.4100000 -12.5800000  -2.7800000   6.2400000
 -12.4200000  -2.8400000   7.3100000 -14.0400000  -2.9800000   5.8300000
 -14.8900000  -2.8700000   6.7500000 -11.9600000  -1.4800000   5.7000000
 -10.8900000  -1.3600000   5.8800000 -12.1200000  -1.5200000   4.6300000
 -12.6100000  -0.1700000   6.2300000 -12.6900000  -0.0500000   7.4600000
 -12.6900000   0.8800000   5.5500000 -14.2900000  -3.3600000   4.5900000
 -13.4900000  -3.5300000   4.0000000 -15.6600000  -3.5300000   4.1100000
 -16.2400000  -2.8100000   4.6900000 -16.3200000  -4.8500000   4.4900000
 -17.5500000  -5.1100000   4.4100000 -15.7300000  -3.1500000   2.6000000
 -16.7900000  -3.0700000   2.3700000 -15.1000000  -4.3000000   1.7200000
 -14.1100000  -4.4800000   2.1400000 -15.8200000  -5.1100000   1.8200000
 -15.0000000  -1.7700000   2.3500000 -14.0400000  -1.8200000   2.8700000
 -15.6400000  -1.0500000   2.8700000 -14.9600000  -1.4500000   1.3100000
 -15.0400000  -3.9300000   0.2100000 -14.1400000  -3.4100000  -0.1000000
 -15.9900000  -3.4900000  -0.1200000 -14.8400000  -4.8200000  -0.3900000
 -15.4700000  -5.8100000   4.8400000 -14.4800000  -5.6500000   4.8000000
 -15.9800000  -6.9600000   5.5500000 -16.8400000  -7.3700000   5.0100000
 -16.4400000  -6.6300000   6.9100000 -17.6500000  -6.4400000   7.2700000
 -14.8900000  -8.0200000   5.5700000 -14.0200000  -7.5600000   6.0300000
 -14.6200000  -8.2600000   4.5400000 -15.2600000  -9.3900000   6.1900000
 -15.9600000  -9.4200000   7.0200000 -15.8000000  -9.8500000   5.3600000
 -14.2300000 -10.3300000   6.6700000 -13.9300000 -10.0500000   7.6800000
 -14.6300000 -11.3500000   6.6600000 -12.9400000 -10.5300000   5.9000000
 -12.7300000  -9.7400000   5.1800000 -13.0500000 -11.4900000   5.3900000
 -11.8400000 -10.5300000   6.9000000 -11.9400000  -9.6800000   7.4400000
 -11.8900000 -11.3500000   7.4900000 -10.9600000 -10.4300000   6.4200000
 -15.5200000  -6.3100000   7.8000000 -14.5600000  -6.3800000   7.4900000
 -15.7100000  -6.1900000   9.2400000 -16.2400000  -7.0900000   9.5700000
 -16.5800000  -5.1000000   9.6500000 -17.2600000  -5.2700000  10.6800000
 -14.3300000  -6.3200000  10.0300000 -13.7400000  -5.4800000   9.6700000
 -14.6200000  -6.2300000  11.0800000 -13.6500000  -7.6600000   9.8400000
 -13.8900000  -8.4200000  10.5800000 -14.0300000  -8.1000000   8.9100000
 -12.1700000  -7.5900000   9.6800000 -11.4800000  -6.9200000  10.4800000
 -11.7400000  -8.2800000   8.7100000 -16.4000000  -4.0100000   8.9600000
 -15.9800000  -4.1300000   8.0600000 -17.1300000  -2.7700000   9.3400000
 -16.8500000  -2.0100000   8.6100000 -16.8400000  -2.4300000  10.3300000
 -18.6500000  -2.8100000   9.0800000 -19.4300000  -1.9000000   9.4600000
 -19.1300000  -3.7800000   8.3000000 -18.4700000  -4.4000000   7.8500000
 -20.4800000  -3.9300000   7.8300000 -21.1100000  -3.1300000   8.2100000
 -21.1100000  -5.2600000   8.3800000 -22.2100000  -5.0100000   8.9000000
 -20.5300000  -3.9700000   6.2800000 -19.8900000  -4.7400000   5.8700000
 -21.5700000  -4.1000000   5.9900000 -20.0800000  -2.6200000   5.5700000
 -19.6500000  -1.6700000   6.3000000 -20.2000000  -2.6100000   4.3500000
 -20.4200000  -6.3800000   8.4000000 -19.4300000  -6.4800000   8.2600000
 -21.1400000  -7.7200000   8.8100000 -22.1900000  -7.7200000   8.5200000
 -21.2400000  -8.1500000  10.3100000 -22.4600000  -8.1700000  10.7300000
 -20.2400000  -8.7700000   8.0200000 -20.6400000  -9.7400000   8.3300000
 -19.2300000  -8.6600000   8.4000000 -20.2400000  -8.8900000   6.4900000
 -21.4500000  -8.8000000   5.7700000 -22.3800000  -8.5400000   6.2500000
 -19.0300000  -9.2700000   5.8500000 -18.1300000  -9.4500000   6.4200000
 -21.4200000  -9.3000000   4.4600000 -22.3800000  -9.4200000   3.9800000
 -19.0600000  -9.7300000   4.5500000 -18.2000000 -10.2300000   4.1200000
 -20.2600000  -9.6400000   3.8300000 -20.3800000  -9.9800000   2.8100000
 -20.3000000  -8.8200000  10.8100000   2.5260000   7.7800000   0.4560000
   2.1860000   7.3440000  -0.8390000   1.0170000   6.6320000  -0.9850000
   0.0800000   6.5660000  -0.0100000  -1.0700000   5.8370000  -0.2110000
  -1.3200000   5.1850000  -1.3730000  -2.5560000   4.4040000  -1.5870000
  -2.5850000   3.5820000  -2.5080000  -3.7610000   4.5820000  -0.7550000
  -4.6400000   3.5100000  -0.6040000  -5.7790000   3.6640000   0.1890000
  -6.0370000   4.8930000   0.8090000  -5.1630000   5.9320000   0.6380000
  -4.0440000   5.7710000  -0.1520000  -0.3420000   5.2390000  -2.4100000
  -0.5620000   4.5840000  -3.5520000   0.8210000   5.9840000  -2.1960000
   2.0280052   7.1413950   1.2004359   3.6160537   7.7172970   0.5896086
   2.1995488   8.8219109   0.5896086   0.2376252   7.0944343   0.9417938
  -1.8119103   5.7814885   0.5992392  -4.4379586   2.5517930  -1.1050175
  -6.4725310   2.8213213   0.3265040  -6.9361898   5.0222519   1.4292836
  -5.3531423   6.8966854   1.1311815  -3.3635817   6.6227316  -0.2989159
   0.1104345   4.6150875  -4.2779238   1.5810599   6.0565873  -2.9878586
