
  506  0.0000000e+00
   4.1000000   4.5100000 -11.0500000   3.4800000   4.9100000 -11.7500000
   3.6800000   4.5400000 -10.1400000   4.9800000   5.0000000 -11.1000000
   4.3800000   3.1200000 -11.3500000   3.6300000   2.7300000 -12.0400000
   4.2300000   2.2900000 -10.0700000   4.1800000   2.8600000  -8.9900000
   5.7700000   2.8800000 -12.0200000   5.8900000   3.5300000 -12.8800000
   5.7700000   1.8300000 -12.3200000   6.7700000   3.1400000 -11.0500000
   7.5500000   2.6700000 -11.3600000   4.0100000   0.9700000 -10.0700000
   3.9900000   0.4900000 -10.9600000   3.7100000   0.1100000  -8.8300000
   2.8100000   0.4600000  -8.3200000   4.8900000   0.1600000  -7.7500000
   4.7400000  -0.2600000  -6.6100000   3.5700000  -1.3800000  -9.2200000
   3.5700000  -1.9700000  -8.3000000   4.5300000  -1.5900000  -9.6900000
   2.4600000  -1.6800000 -10.2400000   1.5100000  -1.7800000  -9.7100000
   2.4800000  -0.9400000 -11.0400000   2.5900000  -3.0800000 -11.0000000
   3.3200000  -3.9300000 -10.4800000   1.9600000  -3.2400000 -12.0200000
   6.0700000   0.5100000  -8.1500000   6.3000000   0.6300000  -9.1200000
   7.1600000   0.8200000  -7.1800000   7.3900000   0.0500000  -6.4500000
   6.8400000   2.1500000  -6.3100000   7.1300000   2.2400000  -5.1500000
   8.5800000   1.1300000  -7.8300000   9.3100000   1.3700000  -7.0600000
   8.5500000   1.9700000  -8.5200000   9.1800000   0.0000000  -8.6500000
   9.0100000  -0.9300000  -8.1100000  10.2500000   0.2000000  -8.7000000
   8.5600000  -0.1200000 -10.0300000   8.6400000   0.8000000 -10.8900000
   7.7500000  -1.0100000 -10.2700000   6.1900000   3.1500000  -6.9100000
   6.0300000   3.1000000  -7.9100000   5.6500000   4.3300000  -6.2300000
   6.5500000   4.5800000  -5.6800000   4.5100000   4.1500000  -5.3200000
   4.5900000   4.4900000  -4.1200000   5.3600000   5.4900000  -7.2300000
   4.4500000   5.1500000  -7.7400000   5.1800000   6.4800000  -6.8000000
   6.5500000   5.7300000  -8.2700000   6.3900000   6.5800000  -8.9300000
   6.5200000   4.7900000  -8.8200000   7.9000000   5.8900000  -7.5900000
   8.0800000   6.6600000  -6.6600000   8.8500000   5.2300000  -8.0600000
   3.4500000   3.4700000  -5.7700000   3.3500000   3.3500000  -6.7600000
   2.3400000   3.0100000  -4.8500000   1.8600000   3.8900000  -4.4100000
   2.9200000   2.1200000  -3.7100000   2.3600000   2.2600000  -2.6000000
   1.2700000   2.2700000  -5.6600000   1.6300000   1.2800000  -5.9400000
   0.3700000   2.0600000  -5.0900000   0.8700000   3.1300000  -6.9200000
   1.7400000   3.4200000  -7.5100000  -0.1500000   2.3000000  -7.6600000
   0.4800000   1.5900000  -8.1800000  -0.8500000   1.8100000  -6.9800000
  -0.6700000   2.9800000  -8.3400000   0.1000000   4.4500000  -6.4700000
  -0.6400000   4.2300000  -5.7000000   0.7600000   5.1700000  -5.9900000
  -0.3600000   4.9400000  -7.3200000   4.0000000   1.3100000  -3.9800000
   4.3400000   1.1700000  -4.9200000   4.5600000   0.4200000  -2.9200000
   3.7800000  -0.1200000  -2.3800000   5.3000000   1.1900000  -1.8300000
   5.1200000   0.9200000  -0.6000000   5.3600000  -0.7000000  -3.5100000
   4.7200000  -1.1400000  -4.2700000   6.2700000  -0.3200000  -3.9600000
   5.6600000  -1.7500000  -2.4700000   4.8000000  -2.4300000  -2.5400000
   5.7700000  -1.3900000  -1.4500000   6.8500000  -2.6200000  -2.7900000
   7.0600000  -2.8300000  -4.0200000   7.6300000  -2.9700000  -1.8500000
   6.1400000   2.1700000  -2.2300000   6.2600000   2.2600000  -3.2300000
   6.6600000   3.0600000  -1.2100000   7.2400000   2.4100000  -0.5600000
   5.6000000   3.9000000  -0.4300000   5.7600000   3.9500000   0.8000000
   7.7600000   3.9600000  -1.8900000   7.2600000   4.6600000  -2.5600000
   8.3200000   3.2900000  -2.5300000   8.7100000   4.5900000  -0.8200000
   9.4200000   3.8400000  -0.4700000   8.1100000   5.0200000  -0.0200000
   9.5400000   5.6800000  -1.4400000   8.8200000   6.3500000  -1.8900000
  10.1600000   6.1200000  -0.6700000  10.4100000   5.1100000  -2.5000000
  11.1400000   4.5000000  -2.1400000  10.3300000   5.2400000  -3.8300000
   9.2000000   5.7000000  -4.3100000   9.1400000   5.7100000  -5.3200000
   8.4700000   6.0900000  -3.7200000  11.2500000   4.7400000  -4.6300000
  11.0800000   4.8900000  -5.6100000  12.1200000   4.4300000  -4.2100000
   4.5300000   4.4000000  -1.1000000   4.6100000   4.2400000  -2.0900000
   3.4200000   4.9800000  -0.3800000   3.7800000   5.8800000   0.1300000
   2.8000000   4.1600000   0.7300000   2.9600000   4.5000000   1.9300000
   2.3900000   5.4900000  -1.3800000   2.8900000   5.9300000  -2.2300000
   1.8600000   4.6700000  -1.8700000   1.6200000   6.0200000  -0.8100000
   2.3100000   2.9700000   0.4100000   2.2900000   2.7800000  -0.5800000
   1.7700000   1.9800000   1.3300000   0.8600000   2.3300000   1.8200000
   2.7500000   1.6000000   2.4600000   2.3400000   1.4600000   3.6400000
   1.3900000   0.7500000   0.4800000   0.6200000   1.1100000  -0.2000000
   2.3000000   0.3200000   0.0500000   1.0100000  -0.0700000   1.0900000
   4.0700000   1.3900000   2.1400000   4.2500000   1.3800000   1.1500000
   5.1700000   1.3400000   3.1400000   4.9500000   0.4200000   3.6800000
   5.1100000   2.4100000   4.2200000   4.8300000   2.0400000   5.3900000
   6.5000000   1.1200000   2.4300000   6.5800000   1.8100000   1.5800000
   7.2700000   1.3800000   3.1500000   6.7700000  -0.3700000   2.0200000
   6.3700000  -1.0500000   2.7700000   6.1900000  -0.6500000   1.1400000
   8.2900000  -0.7500000   1.6800000   8.9200000  -0.9100000   2.5600000
   8.2500000  -1.6600000   1.0800000   8.9400000   0.3200000   0.9100000
   9.3000000   1.0500000   1.5100000   9.4400000   0.2800000  -0.3400000
   9.3200000  -0.6300000  -1.2300000   9.8300000  -0.5200000  -2.0900000
   9.0200000  -1.5900000  -1.0800000  10.1200000   1.3500000  -0.6000000
  10.5000000   1.3600000  -1.5400000  10.4200000   2.0400000   0.0600000
   5.3000000   3.7000000   3.9000000   5.4200000   3.9400000   2.9200000
   5.2600000   4.8800000   4.7500000   6.0400000   4.6900000   5.4900000
   3.9000000   5.0100000   5.5400000   3.7700000   5.7000000   6.5400000
   5.6200000   6.1000000   3.9100000   4.9300000   6.0500000   3.0700000
   5.4700000   7.0300000   4.4500000   7.0300000   6.0100000   3.2600000
   7.2000000   5.1200000   2.6600000   7.7300000   6.0300000   4.0900000
   7.4200000   7.2200000   2.4000000   6.7800000   8.2700000   2.4600000
   8.2400000   7.0700000   1.5200000   2.8500000   4.4900000   4.9700000
   3.0000000   3.9000000   4.1700000   1.4500000   4.5600000   5.4900000
   1.2500000   5.5800000   5.8300000   1.3600000   3.7500000   6.8200000
   0.8600000   4.1800000   7.8600000   0.3900000   4.0600000   4.4900000
  -0.4500000   3.6300000   5.0400000   0.7600000   3.1700000   3.9700000
  -0.2300000   5.0200000   3.4100000   0.4700000   5.1900000   2.5900000
  -1.5400000   4.4000000   2.9500000  -2.1100000   5.0900000   2.3300000
  -1.3300000   3.5200000   2.3300000  -2.2900000   4.2300000   3.7100000
  -0.5700000   6.3300000   4.0900000  -1.3600000   6.2300000   4.8400000
  -0.9900000   7.0100000   3.3500000   0.2900000   6.8700000   4.4800000
   1.9600000   2.5100000   6.8800000   2.3800000   2.1500000   6.0400000
   2.0200000   1.8200000   8.1600000   1.0900000   1.9900000   8.7100000
   3.0200000   2.3900000   9.0600000   2.7600000   2.5200000  10.2700000
   2.2700000   0.3200000   7.9200000   3.1300000   0.2000000   7.2700000
   2.6500000  -0.4200000   9.2300000   2.7200000  -1.4900000   9.0200000
   3.6100000  -0.2200000   9.7000000   1.9700000  -0.2300000  10.0600000
   1.0200000  -0.3400000   7.4500000   0.1000000  -0.3100000   8.0400000
   1.3700000  -1.3500000   7.2400000   0.7800000   0.0900000   6.4800000
   4.1700000   2.9000000   8.5700000   4.3900000   2.7400000   7.6000000
   5.2200000   3.5000000   9.4600000   5.4200000   2.8100000  10.2800000
   4.6700000   4.8100000  10.1600000   4.8800000   4.9600000  11.3800000
   6.4600000   3.9000000   8.6500000   6.2400000   4.5700000   7.8200000
   7.0600000   4.4900000   9.3300000   7.2900000   2.7200000   8.1000000
   7.0500000   1.7900000   8.6100000   6.9800000   2.5100000   7.0700000
   8.7700000   3.0300000   8.0600000   9.3600000   3.4100000   9.0700000
   9.4600000   2.8200000   7.0800000   3.7400000   5.5500000   9.5100000
   3.5500000   5.2800000   8.5600000   3.0700000   6.6700000  10.0700000
   3.6800000   7.1900000  10.8000000   1.8300000   6.3700000  10.9500000
   1.4000000   7.1900000  11.7200000   2.7800000   7.6400000   8.9200000
   3.7400000   7.9800000   8.5200000   2.1500000   7.1100000   8.2100000
   2.2200000   8.4800000   9.3400000   1.3400000   5.1500000  10.9200000
   1.6600000   4.5400000  10.1900000   0.3300000   4.6300000  11.8500000
   0.6600000   3.6100000  12.0400000   0.3200000   5.1900000  12.7800000
  -1.0300000   4.6400000  11.2400000  -2.0200000   4.7600000  11.9600000
  -1.1200000   4.9100000   9.9200000  -0.2600000   4.9700000   9.3900000
  -2.3100000   5.6600000   9.4000000  -2.5600000   6.4100000  10.1500000
  -3.5600000   4.7600000   9.2400000  -4.7100000   5.1800000   9.1900000
  -1.9700000   6.2800000   8.0000000  -1.7300000   5.4100000   7.3900000
  -2.8700000   6.7200000   7.5800000  -0.9100000   7.3200000   7.8800000
  -0.4900000   7.4800000   6.8900000   0.0200000   6.9100000   8.2900000
  -1.1400000   8.6300000   8.6300000  -2.3300000   9.1700000   8.6400000
  -0.2600000   9.1200000   9.3200000  -3.3400000   3.4700000   9.1500000
  -2.3600000   3.2500000   9.2900000  -4.2800000   2.4900000   8.5900000
  -5.3100000   2.7600000   8.8400000  -4.0300000   1.1100000   9.2200000
  -3.0800000   0.9200000   9.9400000  -4.0900000   2.5400000   7.0300000
  -4.6100000   1.7200000   6.5300000  -2.6500000   2.6000000   6.5000000
  -2.7900000   2.7600000   5.4300000  -2.0200000   3.3900000   6.9000000
  -4.7300000   3.8400000   6.4800000  -4.0100000   4.6600000   6.4800000
  -5.0800000   3.6500000   5.4700000  -5.4800000   4.1000000   7.2200000
  -1.8200000   1.2900000   6.7600000  -2.3500000   0.5000000   6.2400000
  -1.8100000   1.0300000   7.8100000  -0.8000000   1.5000000   6.4200000
  -4.9800000   0.1500000   9.0400000  -5.8300000   0.3600000   8.5500000
  -4.8900000  -1.1200000   9.7100000  -4.2700000  -1.0100000  10.6000000
  -4.1800000  -2.0900000   8.7900000  -4.5600000  -2.2600000   7.6400000
  -6.3000000  -1.6200000  10.1100000  -6.9500000  -1.7100000   9.2400000
  -6.7100000  -0.9400000  10.8500000  -6.3100000  -2.8600000  10.7800000
  -6.7600000  -2.8600000  11.6300000  -3.0300000  -2.5600000   9.1900000
  -2.7500000  -2.5900000  10.1600000  -2.0200000  -2.8400000   8.2300000
  -1.8600000  -1.9900000   7.5700000  -2.3900000  -3.9500000   7.3300000
  -2.0000000  -3.9200000   6.2100000  -0.6900000  -3.1400000   8.9200000
  -0.3400000  -2.1500000   9.2100000   0.0500000  -3.6400000   8.2900000
  -0.7600000  -4.0100000  10.0400000   0.0400000  -3.8300000  10.5300000
  -3.1300000  -5.0000000   7.7800000  -3.5500000  -4.9300000   8.6900000
  -3.6200000  -6.1200000   6.9000000  -2.7800000  -6.7400000   6.5800000
  -4.3700000  -6.7100000   7.4400000  -4.4200000  -5.6200000   5.7300000
  -4.3900000  -6.2100000   4.6200000  -5.1700000  -4.5100000   5.9300000
  -5.1700000  -4.0800000   6.8400000  -6.0100000  -3.9700000   4.8700000
  -6.8700000  -4.6200000   4.7000000  -5.2600000  -3.7100000   3.5200000
  -5.9100000  -3.8100000   2.5000000  -6.6400000  -2.5800000   5.2200000
  -7.2100000  -2.2000000   4.3800000  -5.6400000  -1.5800000   5.3700000
  -5.3000000  -1.7600000   6.2500000  -7.5500000  -2.6000000   6.5000000
  -7.8300000  -1.6300000   6.9100000  -6.9300000  -3.1200000   7.2400000
  -8.4400000  -3.1800000   6.2600000  -3.9000000  -3.5000000   3.6500000
  -3.5600000  -3.4400000   4.6000000  -3.0200000  -3.2000000   2.4800000
  -3.3900000  -2.3400000   1.9300000  -3.1200000  -4.3400000   1.4500000
  -3.1600000  -4.0400000   0.2700000  -1.6700000  -2.9000000   3.0400000
  -1.4100000  -3.7000000   3.7300000  -0.9700000  -2.9700000   2.2000000
  -1.4300000  -1.6100000   3.7700000  -2.0800000  -1.6500000   4.6400000
   0.0200000  -1.5000000   4.2100000   0.2800000  -2.3600000   4.8200000
   0.6700000  -1.6200000   3.3400000   0.2900000  -0.6000000   4.7500000
  -1.8400000  -0.3400000   3.0300000  -2.9200000  -0.2900000   2.9100000
  -1.4900000  -0.3500000   2.0000000  -1.4400000   0.4900000   3.6200000
  -3.2600000  -5.6300000   1.9000000  -3.6600000  -5.7700000   2.8200000
  -3.2600000  -6.7300000   0.9200000  -2.4600000  -6.5300000   0.2000000
  -4.5700000  -6.8800000   0.0700000  -4.5400000  -7.5000000  -1.0000000
  -2.9200000  -8.0900000   1.5200000  -2.7000000  -8.8300000   0.7500000
  -3.7300000  -8.4600000   2.1500000  -1.6400000  -7.9300000   2.4000000
  -1.4700000  -8.9200000   2.8300000  -1.7800000  -7.2300000   3.2300000
  -0.4000000  -7.6000000   1.6700000   0.4400000  -6.8200000   2.1400000
  -0.1900000  -8.2000000   0.6000000  -5.7100000  -6.4400000   0.5800000
  -5.6800000  -5.8900000   1.4300000  -7.0100000  -6.3500000  -0.1400000
  -7.1500000  -7.2500000  -0.7300000  -7.0000000  -5.3200000  -1.2300000
  -7.5200000  -5.5500000  -2.3800000  -8.1900000  -6.1000000   0.8700000
  -8.0400000  -6.8700000   1.6300000  -8.0200000  -5.1400000   1.3600000
  -9.5700000  -6.2400000   0.2900000  -9.5900000  -7.2700000  -0.0700000
  -9.6300000  -5.5800000  -0.5700000 -10.7000000  -6.1100000   1.4100000
 -10.4000000  -6.1500000   2.6500000 -11.8400000  -5.8400000   0.9800000
  -6.2700000  -4.1500000  -0.9600000  -5.7400000  -4.0400000  -0.1100000
  -6.1000000  -2.9900000  -1.8000000  -7.0200000  -2.7600000  -2.3400000
  -5.0300000  -3.2200000  -2.9300000  -5.2400000  -2.8400000  -4.1000000
  -5.8400000  -1.7500000  -0.9000000  -4.9600000  -1.9400000  -0.2800000
  -7.0300000  -1.4600000  -0.0700000  -7.7900000  -0.9600000  -0.6700000
  -7.5200000  -2.4000000   0.1900000  -5.5200000  -0.5600000  -1.7500000
  -5.3300000   0.3100000  -1.1100000  -4.5900000  -0.7400000  -2.2900000
  -6.2600000  -0.3300000  -2.5200000  -6.9900000  -0.7400000   1.2200000
  -6.1900000  -1.2000000   1.8100000  -6.8000000   0.3300000   1.1800000
  -7.9300000  -0.8900000   1.7500000  -3.8900000  -3.8100000  -2.4800000
  -3.6700000  -3.8800000  -1.5000000  -2.8600000  -4.3800000  -3.3800000
  -2.3500000  -3.5400000  -3.8400000  -3.4600000  -5.2400000  -4.5800000
  -3.2200000  -5.0200000  -5.7500000  -1.8800000  -5.2100000  -2.4700000
  -1.6100000  -4.5400000  -1.6600000  -2.3400000  -6.1100000  -2.0600000
  -0.5700000  -5.6500000  -3.1800000  -0.0400000  -4.7600000  -3.5100000
  -0.8400000  -6.2800000  -4.0300000   0.4000000  -6.3800000  -2.2600000
   1.2300000  -6.6100000  -2.9300000  -0.1200000  -7.2600000  -1.8900000
   0.9100000  -5.3800000  -1.1200000   1.5700000  -4.6500000  -1.5900000
   0.1400000  -4.8100000  -0.5900000   1.7100000  -6.0700000  -0.1700000
   2.5200000  -6.5400000  -0.5600000   1.2700000  -6.7600000   0.4200000
   2.0500000  -5.3900000   0.5000000  -4.3300000  -6.1900000  -4.2100000
  -4.5200000  -6.3000000  -3.2300000  -5.1300000  -7.0900000  -5.1000000
  -4.4700000  -7.6100000  -5.8000000  -6.0700000  -6.3500000  -6.0200000
  -6.0800000  -6.4800000  -7.2100000  -5.9100000  -8.1700000  -4.2400000
  -5.2700000  -8.5500000  -3.4500000  -6.6500000  -7.5200000  -3.7600000
  -6.4800000  -9.3800000  -5.0100000  -5.7800000  -9.8700000  -5.6900000
  -7.2900000  -8.9500000  -5.5900000  -6.9800000 -10.4200000  -3.9800000
  -8.1000000 -10.1900000  -3.4900000  -6.1900000 -11.3500000  -3.6400000
  -6.8900000  -5.4200000  -5.4400000  -6.9500000  -5.4000000  -4.4300000
  -7.8600000  -4.6600000  -6.2500000  -8.4600000  -5.3800000  -6.8100000
  -7.2800000  -3.7500000  -7.2900000  -7.8100000  -3.5500000  -8.3300000
  -8.8000000  -3.8500000  -5.3000000  -8.1800000  -3.3800000  -4.5400000
  -9.2100000  -3.0500000  -5.9200000  -9.8700000  -4.7200000  -4.6100000
 -10.3900000  -5.2400000  -5.4200000  -9.4900000  -5.3900000  -3.8500000
 -10.9200000  -3.7600000  -3.9800000 -11.3700000  -3.2000000  -4.8000000
 -10.5200000  -3.0500000  -3.2500000 -12.0300000  -4.5600000  -3.3000000
 -11.6200000  -5.2100000  -2.5300000 -12.7100000  -3.8800000  -2.8000000
 -12.8500000  -5.4000000  -4.2600000 -13.1700000  -4.8700000  -5.0600000
 -12.3300000  -6.1900000  -4.6000000 -13.6800000  -5.7200000  -3.7800000
  -6.0800000  -3.2200000  -7.0700000  -5.5300000  -3.5500000  -6.2800000
  -5.4000000  -2.1900000  -7.8700000  -6.1600000  -1.8100000  -8.5500000
  -4.2100000  -2.8300000  -8.5800000  -3.6600000  -2.1800000  -9.4400000
  -4.9700000  -0.9900000  -7.0400000  -4.2900000  -1.2500000  -6.2200000
  -4.3600000  -0.3600000  -7.6900000  -6.0500000  -0.0400000  -6.3500000
  -6.7800000  -0.7200000  -5.9200000  -5.5300000   0.8800000  -5.2100000
  -4.9500000   0.3300000  -4.4600000  -4.9100000   1.5600000  -5.8000000
  -6.3600000   1.3300000  -4.6700000  -6.7300000   0.7200000  -7.4600000
  -7.6500000   0.1700000  -7.6800000  -6.9100000   1.7300000  -7.1100000
  -6.0700000   0.9600000  -8.3000000  -3.9600000  -4.1300000  -8.4900000
  -4.6700000  -4.5900000  -7.9400000  -3.1000000  -4.8900000  -9.3400000
  -2.0500000  -4.5900000  -9.3600000  -3.5000000  -4.8600000 -10.7700000
  -4.6800000  -5.2900000 -11.0700000  -3.0100000  -6.3300000  -8.9600000
  -4.0100000  -6.6500000  -8.6500000  -2.5900000  -6.9300000  -9.7700000
  -2.1800000  -6.3500000  -7.8400000  -2.6500000  -5.8800000  -7.1500000
  -2.7500000  -4.4900000 -11.6700000   1.9380000  -0.9770000  -9.4580000
   0.6690000  -0.3910000  -9.5280000   0.0360000   0.0440000  -8.3490000
  -1.2790000   0.4260000  -8.3940000  -1.9220000   0.8610000  -7.2420000
  -1.2650000   0.9720000  -6.0470000  -1.9570000   1.4160000  -4.7920000
  -2.4410000   0.5780000  -4.0440000  -2.0970000   2.8670000  -4.4170000
  -2.9520000   3.2190000  -3.4050000  -3.0870000   4.5500000  -3.0980000
  -2.2890000   5.4660000  -3.7020000  -1.3430000   5.1150000  -4.6920000
  -1.3020000   3.7790000  -5.0510000   0.0910000   0.5970000  -6.0190000
   0.7000000   0.6510000  -4.7670000   0.7260000   0.1350000  -7.1180000
   2.2233738  -1.1087802  -8.4038673   1.9174817  -1.9568071  -9.9575569
   2.6705577  -0.3259992  -9.9575569  -1.8279858   0.3880770  -9.3464581
  -2.9890489   1.1235139  -7.2919313  -3.5162354   2.4533602  -2.8523390
  -3.8401423   4.8731048  -2.3642562  -2.3817101   6.5224998  -3.4100873
  -0.6774975   5.8610531  -5.1508149  -0.6245021   3.4493254  -5.8524432
   1.6530158   0.4015106  -4.6689392   1.7808029  -0.1707295  -7.0553867
