
  417  0.0000000e+00
  -2.1700000  13.4200000   2.8400000  -1.3900000  13.4500000   3.4800000
  -1.9800000  14.0500000   2.0700000  -3.0200000  13.6800000   3.3200000
  -2.3200000  12.0600000   2.4400000  -3.2700000  12.0200000   1.9000000
  -2.5300000  11.2100000   3.6800000  -1.5600000  11.0500000   4.4600000
  -1.0900000  11.5300000   1.5900000  -0.2000000  11.6300000   2.2100000
  -1.2300000  10.4700000   1.3700000  -0.8300000  12.2300000   0.3000000
  -1.6800000  11.8400000  -0.8100000  -2.4800000  11.1300000  -0.6900000
   0.2300000  13.2000000   0.1400000   0.9500000  13.4600000   0.9000000
  -1.3700000  12.2800000  -2.0800000  -2.0200000  11.9300000  -2.8700000
   0.4800000  13.5900000  -1.2100000   1.3800000  14.1400000  -1.4400000
  -0.3100000  13.1400000  -2.2300000  -0.0600000  13.3800000  -3.2500000
  -3.7100000  10.6800000   4.0200000  -3.8100000   9.7000000   5.1900000
  -3.4900000  10.2500000   6.0700000  -2.9800000   8.4200000   5.0900000
  -3.1600000   7.6400000   4.1800000  -5.2700000   9.2400000   5.2800000
  -5.3700000   8.2500000   4.8400000  -5.5800000   9.1200000   6.3100000
  -5.9800000  10.3200000   4.4500000  -6.3600000  11.1300000   5.0700000
  -6.7600000   9.9100000   3.8100000  -5.0000000  10.9200000   3.4700000
  -5.2000000  11.9500000   3.1600000  -5.1200000  10.2600000   2.6100000
  -2.1300000   8.1200000   6.0700000  -1.9600000   8.7600000   6.8300000
  -1.3600000   6.8400000   6.0600000  -0.6700000   6.9100000   5.2200000
  -2.1200000   5.5300000   5.8100000  -1.8400000   4.7300000   4.9700000
  -0.6000000   6.7200000   7.4000000  -1.2900000   6.7100000   8.2400000
  -0.0900000   7.6800000   7.5400000   0.4400000   5.6200000   7.5700000
   1.2700000   5.6200000   6.8600000   0.0100000   4.6200000   7.5200000
   0.9400000   5.7900000   8.9900000   0.1500000   5.7500000   9.7400000
   1.3700000   6.7900000   9.0900000   1.9700000   4.8200000   9.2400000
   2.9200000   5.0600000   8.9800000   1.8100000   3.5400000   9.3400000
   0.6300000   2.9700000   9.4400000   0.5000000   1.9700000   9.4200000
  -0.2300000   3.5000000   9.4300000   2.8200000   2.6600000   9.3000000
   3.7800000   2.9100000   9.4600000   2.5500000   1.7000000   9.5200000
  -3.2100000   5.4400000   6.5100000  -3.4200000   6.1400000   7.2100000
  -4.2000000   4.2700000   6.4300000  -3.6000000   3.3800000   6.6100000
  -4.7500000   4.0700000   5.0000000  -4.9400000   2.9100000   4.6200000
  -5.2300000   4.4600000   7.5400000  -5.7500000   5.4000000   7.3500000
  -4.7000000   4.4900000   8.4900000  -6.1700000   3.2700000   7.6700000
  -6.7900000   3.3300000   6.7800000  -5.5400000   1.8700000   7.7200000
  -4.8000000   1.8500000   8.5300000  -5.1300000   1.5500000   6.7600000
  -6.3000000   1.1100000   7.8800000  -7.0000000   3.4100000   8.8900000
  -7.6900000   4.2600000   8.9200000  -6.3200000   3.3900000   9.7400000
  -7.6000000   2.5000000   8.9000000  -4.7400000   5.2000000   4.2500000
  -4.5100000   6.0900000   4.6800000  -5.2000000   5.2300000   2.8000000
  -5.9900000   4.4900000   2.7300000  -4.0700000   4.8300000   1.8500000
  -4.2900000   4.0100000   0.8800000  -5.8100000   6.6100000   2.4300000
  -6.5400000   6.9800000   3.1500000  -4.9500000   7.2600000   2.6200000
  -6.3200000   6.8400000   0.9700000  -5.4400000   6.8300000   0.3300000
  -6.7000000   7.8600000   0.8700000  -7.3000000   5.7500000   0.5500000
  -8.0400000   5.6300000   1.3400000  -6.7400000   4.8300000   0.4300000
  -8.0400000   6.1000000  -0.7600000  -8.5800000   5.2400000  -1.1500000
  -8.7300000   6.9200000  -0.6000000  -7.1500000   6.4400000  -1.8500000
  -6.7300000   7.3500000  -1.8400000  -7.6400000   6.3900000  -2.7300000
  -6.4400000   5.7200000  -1.9400000  -2.9700000   5.4700000   2.0900000
  -2.9700000   5.9900000   2.9600000  -1.6900000   5.3800000   1.3600000
  -1.9800000   5.3500000   0.3100000  -1.0800000   3.9500000   1.5400000
  -0.5200000   3.5000000   0.5500000  -0.7600000   6.5300000   1.8600000
  -1.2500000   7.5000000   1.9700000  -0.3900000   6.1300000   2.8000000
   0.4500000   6.7200000   0.9900000   0.9400000   5.7500000   1.0300000
   0.0900000   7.1100000  -0.4800000   0.9200000   7.1400000  -1.1900000
  -0.4300000   8.0600000  -0.4900000  -0.6500000   6.4600000  -0.9300000
   1.3700000   7.8900000   1.3700000   0.9200000   8.8500000   1.1500000
   2.2600000   7.8000000   0.7400000   1.6900000   7.8600000   2.4200000
  -1.3300000   3.2400000   2.6700000  -1.8300000   3.7400000   3.4000000
  -1.1100000   1.8100000   2.8400000  -0.0800000   1.5000000   2.6900000
  -2.0800000   0.9700000   2.0200000  -1.6400000   0.0200000   1.3500000
  -1.4100000   1.4600000   4.3300000  -0.6900000   1.9800000   4.9600000
  -2.4300000   1.7600000   4.5600000  -1.2000000  -0.0200000   4.7100000
  -0.2200000  -0.3800000   4.3900000  -1.9400000  -0.6000000   4.1700000
  -1.2700000  -0.3500000   6.2100000  -0.4000000   0.0600000   6.7200000
  -2.1800000   0.1600000   6.5300000  -1.3800000  -1.8300000   6.4500000
  -0.3800000  -2.2300000   6.2300000  -2.1500000  -2.2500000   5.8100000
  -1.7100000  -2.2800000   7.8600000  -2.6800000  -2.1500000   8.1100000
  -1.6600000  -3.2900000   7.8800000  -1.1600000  -1.9500000   8.6300000
  -3.2900000   1.3500000   2.0200000  -3.6100000   1.9500000   2.7600000
  -4.3400000   0.5600000   1.3300000  -4.2200000  -0.5000000   1.5500000
  -4.2000000   0.5500000  -0.1600000  -4.6100000  -0.3700000  -0.8200000
  -5.7500000   1.0200000   1.7700000  -5.8200000   1.1900000   2.8400000
  -6.0500000   2.0400000   1.5200000  -6.8100000   0.3000000   1.2300000
  -6.7900000  -0.5000000   1.7700000  -3.7900000   1.6600000  -0.7600000
  -3.6300000   2.4500000  -0.1400000  -3.4800000   1.8300000  -2.1900000
  -4.3800000   1.3600000  -2.6000000  -2.2500000   1.2200000  -2.7200000
  -2.2500000   0.5200000  -3.7200000  -3.4600000   3.3500000  -2.4700000
  -2.9400000   3.4700000  -3.4200000  -2.9100000   3.8600000  -1.6800000
  -4.8200000   4.0600000  -2.4300000  -5.8500000   3.4000000  -2.1500000
  -4.8900000   5.3000000  -2.6500000  -1.1700000   1.4600000  -1.9700000
  -1.2100000   2.1100000  -1.2000000   0.0400000   0.7100000  -2.1600000
   0.3700000   0.9400000  -3.1800000  -0.0500000  -0.8300000  -2.2100000
   0.3900000  -1.4300000  -3.2100000   1.1000000   1.3200000  -1.2100000
   1.0300000   2.4100000  -1.1400000   1.1400000   0.9000000  -0.2100000
   2.1100000   1.1900000  -1.6000000  -0.7600000  -1.4100000  -1.2700000
  -1.1700000  -0.8200000  -0.5500000  -0.9900000  -2.8700000  -1.2200000
   0.0200000  -3.2200000  -1.4200000  -1.8600000  -3.4000000  -2.3100000
  -1.6500000  -4.5800000  -2.5800000  -1.4500000  -3.4200000   0.1400000
  -1.3300000  -4.5000000   0.2000000  -0.8300000  -2.9500000   0.9100000
  -2.9500000  -3.0900000   0.3700000  -3.0600000  -2.0300000   0.1600000
  -3.4600000  -3.6400000  -0.4100000  -3.5600000  -3.3600000   1.7200000
  -2.9000000  -3.9400000   2.5900000  -4.8100000  -3.1700000   1.8700000
  -2.8100000  -2.6200000  -2.8200000  -2.9200000  -1.7000000  -2.4100000
  -3.7200000  -2.9700000  -3.9800000  -4.0100000  -4.0200000  -3.9000000
  -3.1600000  -2.9900000  -5.4400000  -3.6800000  -3.7100000  -6.2900000
  -4.9100000  -1.9900000  -4.0900000  -5.3800000  -1.9800000  -3.1100000
  -5.6300000  -2.2100000  -4.8800000  -4.4900000  -1.0200000  -4.3600000
  -2.0400000  -2.3300000  -5.5800000  -1.7700000  -1.9000000  -4.7000000
  -1.1700000  -2.2200000  -6.6900000  -1.7300000  -2.4300000  -7.6000000
   0.0200000  -3.1300000  -6.5100000   0.3100000  -3.8400000  -7.4700000
  -0.7500000  -0.7600000  -6.8600000  -0.2000000  -0.4700000  -5.9600000
  -1.9200000   0.2400000  -6.9100000  -2.4100000   0.2000000  -7.8800000
  -2.5800000   0.0700000  -6.0700000   0.2300000  -0.5500000  -8.0200000
   0.6200000   0.4700000  -8.0700000  -0.3200000  -0.6500000  -8.9600000
   1.0800000  -1.2300000  -7.9500000  -1.5100000   1.6900000  -6.7000000
  -1.0200000   1.7800000  -5.7300000  -0.7600000   2.0600000  -7.3900000
  -2.3600000   2.3800000  -6.7800000   0.6000000  -3.3800000  -5.3000000
   0.3900000  -2.8700000  -4.4600000   1.7900000  -4.1800000  -5.2000000
   2.3500000  -3.9600000  -6.1100000   1.4200000  -5.7200000  -5.3100000
   2.3600000  -6.4500000  -5.5300000   2.5900000  -3.8100000  -3.9600000
   2.1700000  -4.2100000  -3.0400000   2.7600000  -2.7300000  -3.9000000
   3.6100000  -4.1800000  -4.0100000   0.1700000  -6.1500000  -5.1800000
  -0.5200000  -5.5500000  -4.7500000  -0.3700000  -7.4600000  -5.5900000
   0.4100000  -8.1200000  -5.2200000  -0.4800000  -7.5800000  -7.1600000
  -0.3100000  -8.6800000  -7.8000000  -1.7200000  -7.6600000  -4.8700000
  -1.4900000  -7.7300000  -3.8000000  -2.2300000  -8.5600000  -5.2200000
  -2.5400000  -6.5400000  -5.0900000  -2.8000000  -6.1900000  -4.2400000
  -0.9100000  -6.5300000  -7.8000000  -1.0100000  -5.6600000  -7.2900000
  -1.0600000  -6.4400000  -9.3100000  -1.6200000  -7.3300000  -9.6100000
   0.2500000  -6.3400000 -10.1400000   0.2500000  -7.0700000 -11.1500000
  -2.0000000  -5.2400000  -9.6500000  -1.7600000  -4.3000000  -9.1500000
  -2.0700000  -5.1900000 -10.7300000  -3.4300000  -5.6200000  -9.3000000
  -3.7500000  -6.3700000 -10.0300000  -3.4800000  -5.9200000  -8.2500000
  -4.5200000  -4.4800000  -9.4100000  -4.4300000  -3.8300000 -10.2800000
  -4.2300000  -3.8000000  -8.6100000  -5.8500000  -5.0000000  -9.1700000
  -6.6100000  -5.0500000  -9.8400000  -6.2900000  -5.5100000  -8.0000000
  -5.7000000  -5.3900000  -6.9000000  -4.7400000  -5.0700000  -6.9100000
  -6.0200000  -6.0000000  -6.1600000  -7.4000000  -6.1700000  -7.9200000
  -7.7600000  -6.3600000  -6.9900000  -7.8200000  -6.4300000  -8.8000000
   1.1800000  -5.5400000  -9.7900000   1.1300000  -5.1400000  -8.8600000
   2.5400000  -5.6400000 -10.3000000   2.5200000  -5.7700000 -11.3800000
   3.1900000  -6.9200000  -9.7400000   3.3700000  -7.0500000  -8.5200000
   3.3300000  -4.3700000  -9.9600000   4.2900000  -4.3900000 -10.4700000
   3.3900000  -4.4100000  -8.8700000   2.6400000  -2.9900000 -10.2900000
   1.6500000  -3.0200000  -9.8300000   2.6400000  -2.8100000 -11.8100000
   2.1400000  -3.6600000 -12.2700000   3.6500000  -2.7200000 -12.2200000
   2.2600000  -1.8400000 -12.1400000   3.4200000  -1.8500000  -9.6500000
   3.0200000  -0.8700000  -9.9200000   4.4700000  -1.9900000  -9.9300000
   3.2700000  -1.9400000  -8.5800000   3.6800000  -7.6300000 -10.7700000
   3.4400000  -7.4700000 -11.7400000   4.7100000  -8.7000000 -10.5400000
   5.0600000  -9.0100000 -11.5200000   4.2300000  -9.9800000  -9.8100000
   4.3600000 -11.0500000 -10.3900000   6.0200000  -8.0500000  -9.9800000
   5.9500000  -7.7600000  -8.9400000   6.8000000  -8.8000000 -10.1400000
   6.5000000  -6.7500000 -10.5900000   6.8700000  -6.7000000 -11.8200000
   6.5400000  -5.6800000  -9.9300000   3.7300000  -9.8400000  -8.5900000
   3.5700000  -8.8800000  -8.3000000   3.4300000 -10.9000000  -7.6600000
   2.8200000 -11.6000000  -8.2300000   4.3700000 -11.3900000  -7.3900000
   2.6600000 -10.3600000  -6.3900000   1.4400000 -10.3700000  -6.3300000
   3.5400000  -9.9100000  -5.4600000   4.5300000 -10.0900000  -5.5900000
   3.1800000  -9.2000000  -4.2200000   2.7100000  -8.2600000  -4.5000000
   4.4600000  -8.9300000  -3.3200000   5.5500000  -9.4700000  -3.5500000
   2.2600000 -10.1100000  -3.4400000   1.4700000 -10.5800000  -4.0100000
   1.8700000  -9.5400000  -2.6000000   3.0200000 -11.2100000  -3.0400000
   2.8100000 -11.9200000  -3.6500000   4.2900000  -8.0300000  -2.3500000
   3.3500000  -7.6700000  -2.2200000   5.2500000  -7.5000000  -1.4500000
   6.1500000  -8.1000000  -1.5800000   4.7500000  -7.5600000   0.0000000
   3.6100000  -7.4000000   0.4000000   5.6900000  -6.0800000  -1.9200000
   6.5700000  -5.9600000  -1.2900000   4.7400000  -5.0700000  -1.6900000
   3.9900000  -5.2500000  -2.2700000   5.9700000  -6.0800000  -3.3800000
   6.5500000  -5.2000000  -3.6600000   6.6000000  -6.9400000  -3.6300000
   5.0500000  -6.1600000  -3.9500000   5.7600000  -7.6300000   0.8500000
   6.7000000  -7.5900000   0.4700000   5.6600000  -7.6300000   2.3200000
   4.7600000  -8.1100000   2.7100000   5.6000000  -6.2200000   2.8500000
   6.3800000  -5.3600000   2.4400000   6.7600000  -8.4600000   2.9600000
   7.6800000  -7.8900000   3.0700000   6.4200000  -8.7400000   3.9500000
   6.8500000  -9.4300000   2.4700000   4.6900000  -5.9300000   3.8700000
   4.0700000  -6.6500000   4.2100000   4.6000000  -4.6900000   4.6000000
   5.4200000  -4.0300000   4.3400000   4.7300000  -4.9300000   6.1500000
   4.0300000  -5.6900000   6.7700000   3.2000000  -4.0400000   4.2500000
   3.1600000  -3.0400000   4.6800000   2.4100000  -4.7600000   4.4600000
   2.9900000  -3.7500000   2.8200000   2.2800000  -4.5200000   2.0300000
   1.8400000  -5.4100000   2.4400000   3.5600000  -2.6800000   2.0200000
   2.2100000  -3.9600000   0.7800000   1.7900000  -4.4600000   0.0000000
   2.9200000  -2.7900000   0.7000000   4.4300000  -1.5700000   2.2000000
   4.8400000  -1.4600000   3.2000000   3.3100000  -1.8800000  -0.3100000
   2.9800000  -2.0700000  -1.3200000   4.6800000  -0.6200000   1.1900000
   5.3300000   0.2300000   1.3900000   4.2300000  -0.8300000  -0.0800000
   4.5200000  -0.2000000  -0.9100000   5.6200000  -4.1500000   6.8200000
   6.1400000  -3.4800000   6.2700000   5.6700000  -4.2300000   8.3200000
   5.5400000  -5.2900000   8.5300000   4.6100000  -3.3900000   9.0600000
   4.3000000  -3.7100000  10.2200000   7.1300000  -3.9700000   8.7700000
   7.8400000  -4.4800000   8.1200000   7.3300000  -4.3700000  10.0900000
   7.0000000  -3.6200000  10.5900000   7.3800000  -2.4900000   8.7300000
   8.3900000  -2.2100000   9.0600000   6.6800000  -2.0400000   9.4400000
   7.2100000  -2.0800000   7.7400000   4.0700000  -2.4100000   8.3300000
   4.5700000  -2.1700000   7.4800000   3.1200000  -1.3700000   8.9200000
   3.0700000  -0.5900000   8.1700000   3.7200000  -0.6600000  10.1600000
   3.4600000  -1.0900000  11.3200000   1.7500000  -1.8700000   9.0300000
   1.3600000  -2.2400000   8.0900000   1.7100000  -2.7400000   9.6900000
   0.8000000  -0.7900000   9.5300000  -0.3500000  -1.1900000   9.8600000
   1.1300000   0.4200000   9.4100000   4.4600000   0.3100000  10.0700000
   4.4510000   1.6720000   5.9300000   4.1280000   0.8380000   4.8350000
   4.5790000   1.3470000   3.6550000   3.7160000   1.4060000   2.6070000
   4.1340000   1.9040000   1.3890000   5.4220000   2.3190000   1.2230000
   5.9180000   2.8590000  -0.0690000   7.0500000   3.3150000  -0.1720000
   5.0960000   2.8630000  -1.2920000   4.4810000   4.0360000  -1.7160000
   3.6980000   4.0370000  -2.8630000   3.5470000   2.8640000  -3.6140000
   4.2040000   1.6980000  -3.2020000   4.9740000   1.7050000  -2.0630000
   6.3360000   2.2580000   2.3120000   7.5900000   2.6740000   2.1260000
   5.8870000   1.7580000   3.5220000   4.2446833   1.1392813   6.8700235
   5.5173370   1.9384318   5.8859594   3.8422833   2.5871636   5.8859594
   2.6804964   1.0556813   2.7295118   3.4255328   1.9661276   0.5498252
   4.6149614   4.9646734  -1.1418745   3.1949143   4.9614757  -3.1827648
   2.9192937   2.8589753  -4.5173048   4.1038047   0.7743875  -3.7909829
   5.4995184   0.7887943  -1.7557581   8.2391426   2.6386462   2.8726351
   6.5748269   1.6888167   4.3776330
