
  315  0.0000000e+00
  -4.4550000   1.7070000   5.9350000  -4.2800000   2.1440000   5.0410000
  -4.8730000   0.7960000   5.8130000  -5.0760000   2.2830000   6.4840000
  -3.1740000   1.5170000   6.6210000  -3.3480000   1.3090000   7.6770000
  -2.3300000   2.7920000   6.6250000  -1.1280000   2.7760000   6.3180000
  -2.3470000   0.3540000   6.0570000  -1.9810000   0.6170000   5.0650000
  -1.3850000   0.2940000   6.5650000  -2.9960000  -0.9670000   6.1740000
  -3.1950000  -1.5880000   7.4020000  -2.7990000  -1.2130000   8.3340000
  -3.5330000  -1.6120000   4.9640000  -3.5190000  -1.0430000   4.0470000
  -3.7760000  -2.8360000   7.4610000  -3.9110000  -3.3410000   8.4060000
  -4.1120000  -2.8670000   5.0960000  -4.5620000  -3.2950000   4.2130000
  -4.1970000  -3.4770000   6.3210000  -4.5630000  -4.4900000   6.4000000
  -2.8070000   3.9710000   7.0690000  -3.7110000   3.9640000   7.5200000
  -1.9230000   5.1280000   7.3100000  -2.5170000   5.9460000   7.7170000
  -1.1050000   4.8230000   7.9630000  -1.1840000   5.7740000   6.0140000
  -0.2890000   6.6110000   6.1660000  -1.4330000   5.2200000   4.7830000
  -2.0550000   4.4280000   4.7120000  -0.5840000   5.5910000   3.6120000
   0.1170000   6.3960000   3.8320000  -1.4940000   5.9700000   2.4170000
  -2.4950000   5.2670000   2.1460000   0.2340000   4.3760000   3.1700000
  -0.4030000   3.4920000   3.1870000   0.6150000   4.5680000   2.1670000
   1.3820000   4.2550000   4.2350000   1.0000000   4.3680000   5.2490000
   2.1980000   4.9680000   4.1150000   1.9120000   2.8180000   4.0690000
   2.4890000   2.9040000   3.1480000   1.1440000   2.0600000   4.2230000
   2.9830000   2.4550000   5.0680000   3.9050000   2.7520000   4.7820000
   2.7650000   1.7920000   6.2260000   1.5280000   1.6160000   6.5630000
   1.3500000   0.9630000   7.3130000   0.8070000   2.1620000   6.1140000
   3.7540000   1.4670000   6.9560000   3.6620000   0.9300000   7.8060000
   4.6840000   1.7810000   6.7200000  -0.9930000   6.8780000   1.5420000
  -0.1030000   7.2920000   1.7790000  -1.6010000   7.1030000   0.2020000
  -1.7220000   8.1750000   0.0460000  -2.5870000   6.6400000   0.1670000
  -0.7300000   6.6200000  -0.9560000   0.4650000   6.3940000  -0.8410000
  -1.3770000   6.3800000  -2.1660000  -2.3850000   6.3250000  -2.1440000
  -0.7160000   6.0120000  -3.4430000  -0.7720000   4.9370000  -3.6140000
   0.7410000   6.3310000  -3.6110000   1.2190000   7.4850000  -3.6810000
  -1.5960000   6.6330000  -4.5170000  -1.8170000   7.6630000  -4.2380000
  -1.0470000   6.6350000  -5.4590000  -2.9180000   5.8960000  -4.7860000
  -2.6700000   4.8500000  -4.9640000  -3.5160000   5.9260000  -3.8750000
  -3.4550000   6.5380000  -6.0300000  -2.7940000   6.2440000  -6.8460000
  -3.5710000   7.6160000  -5.9180000  -4.8280000   5.9270000  -6.3550000
  -5.4030000   5.9580000  -5.4290000  -4.8610000   4.8650000  -6.5980000
  -5.5360000   6.6320000  -7.4290000  -6.3710000   6.0870000  -7.5870000
  -4.9090000   6.5340000  -8.2150000  -5.7580000   7.5820000  -7.1670000
   1.5740000   5.2760000  -3.5470000   1.2440000   4.3450000  -3.3340000
   3.0580000   5.3680000  -3.6940000   3.2940000   6.2640000  -4.2690000
   3.3630000   4.4230000  -4.1440000   3.8670000   5.4650000  -2.3610000
   5.0980000   5.6720000  -2.3500000   3.1970000   5.2420000  -1.1990000
   2.1930000   5.1350000  -1.2170000   3.7620000   5.4100000   0.1530000
   2.9060000   5.5830000   0.8050000   4.5300000   6.1830000   0.1350000
   4.4490000   4.1470000   0.6620000   5.6760000   4.0650000   0.7420000
   3.5670000   3.0710000   0.7830000   2.5820000   3.2680000   0.6800000
   3.9600000   1.7470000   1.4270000   4.6320000   1.9560000   2.2600000
   3.0870000   1.1740000   1.7400000   4.7490000   0.7940000   0.5310000
   4.5540000  -0.4040000   0.6110000   5.5730000   1.3500000  -0.3230000
   5.7930000   2.3230000  -0.1660000   6.3440000   0.6970000  -1.3260000
   5.7030000   0.0740000  -1.9500000   7.4700000  -0.1300000  -0.6490000
   8.4930000   0.4100000  -0.2090000   7.0300000   1.7230000  -2.2810000
   7.8300000   2.3110000  -1.8310000   6.3040000   2.4500000  -2.6430000
   7.7430000   1.0600000  -3.4630000   7.5700000  -0.2070000  -3.6480000
   8.5520000   1.7650000  -4.1970000   7.3040000  -1.4340000  -0.4540000
   6.4860000  -1.8350000  -0.8890000   8.1630000  -2.2860000   0.3350000
   7.8130000  -3.3160000   0.2620000   9.1890000  -2.2510000  -0.0310000
   8.1610000  -2.0140000   1.8110000   9.1080000  -2.3510000   2.4970000
   7.0370000  -1.4330000   2.3260000   6.2140000  -1.1640000   1.8060000
   6.7160000  -1.4500000   3.7170000   7.6190000  -1.7680000   4.2380000
   5.4950000  -2.4190000   3.9460000   4.3460000  -2.1580000   3.6010000
   6.2750000  -0.0320000   4.2550000   5.3650000   0.0990000   3.6690000
   5.8660000  -0.0080000   5.2650000   7.2410000   1.1580000   4.0530000
   7.2610000   1.2910000   2.9720000   8.2540000   0.8840000   4.3480000
   6.7850000   2.4060000   4.7150000   5.6380000   2.7540000   4.9250000
   7.6850000   3.2260000   4.9490000   5.7400000  -3.5180000   4.6430000
   6.7080000  -3.6840000   4.8810000   4.7940000  -4.3820000   5.3010000
   4.4080000  -4.0730000   6.2730000   5.3920000  -5.2450000   5.5920000
   3.7990000  -4.9590000   4.2740000   4.1660000  -5.6650000   3.3310000
   2.5090000  -4.7700000   4.5150000   2.3380000  -4.1070000   5.2580000
   1.4440000  -5.3390000   3.6890000   1.5680000  -6.4220000   3.6890000
   1.4500000  -4.8300000   2.2440000   1.1830000  -5.5650000   1.2490000
   0.1320000  -4.9960000   4.4150000   0.0860000  -3.9360000   4.6630000
   0.1020000  -5.8180000   5.7060000   0.0430000  -6.8510000   5.3650000
   1.0590000  -5.9280000   6.2160000  -1.0860000  -5.2430000   3.5960000
  -1.1880000  -4.5570000   2.7550000  -1.1130000  -6.2590000   3.2020000
  -1.9960000  -5.1170000   4.1840000  -0.9660000  -5.4470000   6.7480000
  -0.8710000  -6.1110000   7.6080000  -0.7090000  -4.4390000   7.0740000
  -1.9340000  -5.5410000   6.2560000   1.8790000  -3.5220000   2.0540000
   2.0580000  -2.9490000   2.8660000   2.1530000  -3.0170000   0.6730000
   1.3110000  -3.2420000   0.0190000   2.3170000  -1.9410000   0.7270000
   3.3750000  -3.7250000   0.0030000   3.3110000  -4.0700000  -1.1940000
   4.3590000  -4.1800000   0.7320000   4.2730000  -4.1230000   1.7370000
   5.3230000  -5.1240000   0.2730000   5.9570000  -5.2580000   1.1500000
   5.9170000  -4.7570000  -0.5640000   4.7750000  -6.5330000  -0.0410000
   5.1450000  -7.0560000  -1.0470000   3.8230000  -7.0200000   0.7590000
   3.6030000  -6.4600000   1.5700000   3.0860000  -8.2610000   0.5980000
   3.8880000  -8.9980000   0.6340000   2.3210000  -8.3970000   1.3620000
   2.2910000  -8.2470000  -0.6930000   2.3590000  -9.2570000  -1.5150000
   1.6650000  -7.0730000  -1.0310000   1.7390000  -6.3070000  -0.3780000
   0.8430000  -6.8850000  -2.2390000   0.1750000  -7.7220000  -2.4400000
   1.7830000  -6.7600000  -3.4910000   1.5170000  -7.3870000  -4.5470000
   0.0660000  -5.5360000  -2.0600000  -0.4060000  -5.2690000  -3.0050000
   0.6850000  -4.7290000  -1.6670000  -1.1220000  -5.7040000  -1.0330000
  -0.7700000  -6.0750000  -0.0710000  -1.8090000  -4.3450000  -0.8320000
  -1.0790000  -3.6900000  -0.3570000  -2.5480000  -4.6000000  -0.0720000
  -2.1770000  -4.0000000  -1.7980000  -2.1780000  -6.7390000  -1.4110000
  -1.7570000  -7.7410000  -1.3190000  -2.9150000  -6.7150000  -0.6080000
  -2.5420000  -6.6890000  -2.4370000   2.8220000  -5.8850000  -3.3920000
   2.9110000  -5.3800000  -2.5210000   3.8690000  -5.5620000  -4.3750000
   4.3700000  -6.4840000  -4.6700000   4.5980000  -4.9340000  -3.8620000
   3.3150000  -4.7490000  -5.5810000   4.0830000  -4.1880000  -6.3650000
   2.0000000  -4.6210000  -5.6810000   1.4600000  -5.1760000  -5.0320000
   1.2230000  -3.8370000  -6.7150000   0.2700000  -4.2900000  -6.9880000
   1.9330000  -3.6790000  -7.5270000   0.8310000  -2.4350000  -6.3240000
   0.4460000  -2.2100000  -5.1990000   0.9250000  -1.4200000  -7.2160000
   1.1470000  -1.6910000  -8.1630000   0.8190000   0.0440000  -6.9780000
   1.6110000   0.1790000  -6.2420000  -0.4550000   0.5630000  -6.3640000
  -1.5400000   0.2950000  -6.7720000   1.1630000   1.0030000  -8.2020000
   0.6970000   1.9620000  -7.9780000   2.2320000   1.0960000  -8.3960000
   0.6330000   0.4640000  -9.4470000  -0.2120000   0.8740000  -9.6450000
  -0.1950000   1.2010000  -5.2190000   0.7580000   1.2650000  -4.8920000
  -1.2510000   1.7150000  -4.3280000  -0.7540000   2.0470000  -3.4160000
  -1.8300000   2.5290000  -4.7630000  -2.0910000   0.6370000  -3.7180000
  -3.1020000   1.0160000  -3.1770000  -1.7410000  -0.6650000  -3.8930000
  -0.9280000  -0.9080000  -4.4410000  -2.5670000  -1.7950000  -3.4740000
  -2.0480000  -2.7460000  -3.5910000  -2.6940000  -1.6150000  -2.4060000
  -3.9760000  -1.6990000  -4.0680000  -4.0050000  -1.7860000  -5.2850000
  -4.9710000  -1.3960000  -3.2610000  -4.7160000  -1.2600000  -2.2930000
  -6.3140000  -1.1250000  -3.6350000  -6.5850000  -1.8960000  -4.3560000
  -6.6210000   0.2230000  -4.3280000  -7.7610000   0.5170000  -4.8350000
  -7.1810000  -1.3770000  -2.3730000  -8.2070000  -1.3010000  -2.7330000
  -7.2200000  -0.5180000  -1.7030000  -7.0180000  -2.6920000  -1.5880000
  -7.7730000  -3.8000000  -1.7740000  -8.5950000  -3.9200000  -2.4640000
  -6.1170000  -2.9400000  -0.4390000  -7.4560000  -4.7020000  -0.7200000
  -7.8370000  -5.6230000  -0.5570000  -6.4980000  -4.1790000   0.1490000
  -5.0750000  -2.2770000   0.3220000  -4.7940000  -1.2950000  -0.0290000
  -5.8560000  -4.8280000   1.1920000  -6.2280000  -5.8200000   1.4000000
  -4.4870000  -2.8740000   1.4670000  -3.7240000  -2.3100000   1.9830000
  -4.7260000  -4.2190000   1.7810000  -4.0970000  -4.6590000   2.5410000
  -5.5920000   1.0590000  -4.5660000  -4.7190000   0.8150000  -4.1200000
  -5.7180000   2.3820000  -5.2500000  -6.3720000   2.3080000  -6.1190000
  -4.7340000   2.6180000  -5.6540000  -6.1310000   3.5520000  -4.3610000
  -6.8490000   4.4190000  -4.7860000  -5.7770000   3.5520000  -3.1070000
  -5.0580000   2.8660000  -2.9260000  -6.1670000   4.5280000  -2.1070000
  -6.8680000   5.2310000  -2.5580000  -4.9460000   5.3400000  -1.6480000
  -3.8440000   4.7330000  -1.7590000  -6.8040000   3.9420000  -0.8690000
  -6.9250000   4.7380000  -0.1340000  -6.2020000   3.1370000  -0.4490000
  -8.2000000   3.3330000  -1.0570000  -8.5750000   2.4860000  -0.2410000
  -8.9830000   3.7550000  -1.8720000  -5.0600000   6.5120000  -1.1900000
  -6.4750000   1.2070000   2.2670000  -5.1620000   0.7850000   2.5570000
  -4.1050000   1.3390000   1.8870000  -2.8490000   0.7680000   2.0610000
  -1.7500000   1.2960000   1.3980000  -1.8930000   2.3900000   0.5490000
  -0.7150000   2.9820000  -0.1780000  -0.4290000   4.1390000   0.0520000
   0.1260000   2.2120000  -1.1230000   0.0550000   0.8270000  -1.2000000
   0.8520000   0.1320000  -2.0810000   1.7360000   0.8110000  -2.9050000
   1.8050000   2.1970000  -2.8530000   0.9890000   2.9100000  -1.9790000
  -3.1500000   2.9610000   0.3840000  -3.2820000   4.0350000  -0.4340000
  -4.2430000   2.4370000   1.0550000  -7.0197768   1.3820920   3.2064472
  -6.4402061   2.1392111   1.6841004  -6.9898452   0.4290781   1.6841004
  -2.7266428  -0.1014737   2.7236041  -0.7570212   0.8460199   1.5446663
  -0.6448028   0.2804170  -0.5507519   0.7873074  -0.9649418  -2.1313339
   2.3817584   0.2528917  -3.5989100   2.5083231   2.7344885  -3.5060258
   1.0211592   4.0093722  -1.9603812  -4.1700625   4.4533015  -0.5623313
  -5.2327560   2.8990730   0.9251092
