
  474  0.0000000e+00
   0.8200000 -10.1200000   0.9300000   0.0500000 -10.6500000   0.5400000
   1.6500000 -10.6700000   0.7500000   0.9100000  -9.2600000   0.4100000
   0.5800000  -9.9000000   2.4100000   0.5700000 -10.8500000   2.9400000
  -0.9000000  -9.4300000   2.6800000  -1.5800000  -8.9100000   1.8000000
   1.6800000  -8.9400000   2.9000000   2.6100000  -9.0400000   2.3300000
   2.0200000  -9.2000000   3.9000000   1.3300000  -7.4800000   2.8200000
   1.4900000  -6.8100000   1.6300000   1.9600000  -7.2400000   0.7600000
   0.7800000  -6.8100000   3.9400000   0.7400000  -7.3200000   4.9000000
   1.0700000  -5.4900000   1.5500000   1.0300000  -4.9600000   0.6100000
   0.3300000  -5.5100000   3.8400000  -0.1800000  -5.0300000   4.6700000
   0.4600000  -4.8500000   2.6400000   0.1000000  -3.5600000   2.4500000
  -0.1100000  -3.1500000   3.2900000  -1.4300000  -9.4300000   3.9200000
  -0.9100000  -9.8400000   4.6800000  -2.8100000  -9.0100000   4.3500000
  -3.1700000  -8.3400000   3.5700000  -2.6600000  -8.1200000   5.6000000
  -1.9400000  -8.5000000   6.5200000  -3.7400000 -10.2200000   4.6300000
  -3.3100000 -10.7300000   5.4900000  -3.7700000 -11.0700000   3.5200000
  -4.4300000 -11.7400000   3.6900000  -5.1800000  -9.8500000   4.9800000
  -5.2800000  -8.9700000   5.6200000  -5.7500000  -9.7200000   4.0500000
  -5.6700000 -10.6700000   5.5100000  -3.3800000  -7.0100000   5.7000000
  -3.9500000  -6.8400000   4.8800000  -3.5500000  -6.2000000   6.9400000
  -3.4800000  -6.7700000   7.8700000  -4.9500000  -5.5500000   7.0000000
  -5.4900000  -5.2100000   5.9800000  -2.4500000  -5.1100000   7.0600000
  -1.4500000  -5.5400000   6.9800000  -2.4400000  -4.4200000   6.2200000
  -2.3300000  -4.4100000   8.3900000  -2.9000000  -4.7500000   9.4200000
  -1.5000000  -3.5400000   8.4700000  -5.6100000  -5.6200000   8.1500000
  -5.1500000  -6.1400000   8.8900000  -7.0000000  -5.2100000   8.3700000
  -7.1400000  -4.2000000   7.9900000  -7.1900000  -5.1300000   9.4400000
  -7.9300000  -6.1500000   7.6200000  -9.0200000  -5.7000000   7.2100000
  -7.5900000  -7.4000000   7.5100000  -6.8300000  -7.8000000   8.0300000
  -8.2900000  -8.3800000   6.5700000  -7.8800000  -9.3900000   6.6600000
  -9.3400000  -8.3500000   6.8700000  -8.1900000  -8.0600000   5.0600000
  -8.5400000  -8.9000000   4.2400000  -7.6000000  -6.9500000   4.6300000
  -7.3500000  -6.3400000   5.4000000  -7.3700000  -6.6100000   3.1500000
  -8.2000000  -6.9400000   2.5400000  -6.0400000  -7.1400000   2.6100000
  -5.0100000  -7.0600000   3.3100000  -7.5600000  -5.0400000   3.0700000
  -7.6600000  -4.7500000   2.0200000  -6.6400000  -4.5700000   3.4300000
  -8.8000000  -4.4600000   3.8000000  -9.5900000  -5.0900000   3.4000000
  -8.7400000  -4.7000000   4.8600000  -8.7000000  -2.9600000   3.5400000
  -7.6900000  -2.6700000   3.8200000  -8.7500000  -2.7200000   2.4800000
  -9.6400000  -2.2200000   4.4400000 -10.1400000  -2.7000000   5.1700000
  -9.7900000  -0.9200000   4.3500000  -9.3100000  -0.2000000   3.4500000
  -9.6400000   0.7400000   3.3300000  -8.6400000  -0.5600000   2.7900000
 -10.5600000  -0.2300000   5.1700000 -10.7400000   0.7600000   5.0600000
 -10.6500000  -0.6200000   6.1000000  -5.9900000  -7.4800000   1.3900000
  -6.8200000  -7.3100000   0.8300000  -4.9000000  -8.2300000   0.8800000
  -4.0100000  -8.1400000   1.4900000  -4.4100000  -7.7300000  -0.4700000
  -5.2000000  -7.2400000  -1.3200000  -5.3800000  -9.6200000   0.8100000
  -6.0700000  -9.9100000   1.6100000  -5.9800000  -9.8000000  -0.0700000
  -4.2700000 -10.5400000   0.9300000  -4.0800000 -10.5800000   1.8700000
  -3.0700000  -7.7900000  -0.5500000  -2.6100000  -8.2900000   0.2000000
  -2.2200000  -7.0200000  -1.4200000  -2.8600000  -6.8600000  -2.2900000
  -1.0100000  -7.7800000  -1.7800000  -0.3400000  -8.3700000  -0.9600000
  -1.8400000  -5.7500000  -0.7900000  -1.3600000  -5.1800000  -1.5800000
  -1.1300000  -6.0200000   0.0000000  -2.9800000  -4.9700000  -0.0500000
  -4.0400000  -4.4600000  -0.7200000  -4.0300000  -4.4700000  -1.8000000
  -2.9700000  -4.9000000   1.4000000  -2.2100000  -5.3100000   2.0500000
  -5.0600000  -3.7200000  -0.0800000  -5.8700000  -3.3000000  -0.6700000
  -4.0200000  -4.2600000   2.0200000  -4.0100000  -4.1100000   3.0900000
  -5.0600000  -3.6700000   1.3000000  -5.7400000  -3.0300000   1.8400000
  -0.7800000  -7.8200000  -3.0700000  -1.5100000  -7.3900000  -3.6300000
   0.3000000  -8.6200000  -3.7400000   0.0400000  -9.6600000  -3.5800000
   1.7300000  -8.4100000  -3.2000000   2.4400000  -9.4300000  -2.8900000
   0.2100000  -8.2700000  -5.2400000  -0.7100000  -8.7400000  -5.6100000
   0.9500000  -8.7800000  -5.8600000   0.2400000  -7.1900000  -5.3900000
   2.1300000  -7.1700000  -2.9800000   1.5300000  -6.4000000  -3.2100000
   3.4700000  -6.7100000  -2.7400000   4.1700000  -7.4600000  -2.3800000
   3.6000000  -5.5700000  -1.6300000   3.1000000  -4.4800000  -1.8200000
   3.9600000  -6.0900000  -4.0400000   3.3000000  -5.2400000  -4.2300000
   5.4400000  -5.7200000  -3.8400000   5.9700000  -6.6500000  -3.6400000
   5.9400000  -5.3600000  -4.7500000   5.5000000  -5.0200000  -3.0100000
   4.0000000  -6.9700000  -5.2500000   4.5100000  -6.5700000  -6.1200000
   4.5500000  -7.8400000  -4.9100000   3.0000000  -7.3300000  -5.5100000
   3.9800000  -6.0000000  -0.4200000   4.0800000  -6.9900000  -0.2600000
   4.2400000  -5.0400000   0.6600000   3.3500000  -4.4900000   0.9600000
   5.2600000  -3.9900000   0.3500000   5.0200000  -2.8400000   0.6600000
   4.6100000  -5.8800000   1.9200000   5.6200000  -6.2900000   1.9200000
   3.9700000  -6.7500000   2.0700000   4.6000000  -4.9200000   3.1700000
   5.3900000  -4.1900000   2.9800000   3.6900000  -4.3200000   3.2400000
   4.8300000  -5.6200000   4.5100000   4.1000000  -6.4300000   4.5000000
   5.7900000  -6.1200000   4.5900000   4.7400000  -4.6000000   5.6300000
   3.8500000  -4.0000000   5.4400000   4.7000000  -5.1700000   6.5600000
   6.1300000  -3.8000000   5.7500000   6.9700000  -4.3500000   5.6400000
   6.2000000  -3.4600000   6.7000000   6.1400000  -2.9400000   5.2300000
   6.3900000  -4.3900000  -0.2300000   6.6200000  -5.3600000  -0.4200000
   7.5600000  -3.4200000  -0.2500000   7.7600000  -2.9900000   0.7300000
   7.2800000  -2.2000000  -1.2200000   7.7700000  -1.1000000  -0.9700000
   8.9100000  -4.1000000  -0.6800000   9.6700000  -3.3200000  -0.7100000
   9.1900000  -4.8500000   0.0600000   8.8300000  -4.5300000  -1.6800000
   6.5300000  -2.3600000  -2.2900000   6.0600000  -3.2200000  -2.5300000
   6.3000000  -1.2400000  -3.2000000   7.2800000  -0.8500000  -3.4800000
   5.4300000  -0.0900000  -2.6400000   5.7300000   1.1300000  -2.6800000
   5.5500000  -1.6700000  -4.4800000   4.5400000  -1.9300000  -4.1500000
   6.0600000  -2.5100000  -4.9500000   5.5400000  -0.9100000  -5.2600000
   4.3300000  -0.4900000  -1.8900000   4.0900000  -1.4700000  -1.8000000
   3.5000000   0.4800000  -1.1500000   3.2800000   1.2900000  -1.8500000
   4.1700000   1.0700000   0.0200000   3.9700000   2.3100000   0.1800000
   2.0900000  -0.0800000  -0.7700000   2.3400000  -0.8000000   0.0100000
   1.1800000   1.0500000  -0.1700000   1.6800000   1.7500000   0.5000000
   0.8500000   1.6100000  -1.0500000   0.2700000   0.6500000   0.2800000
   1.1900000  -0.8200000  -1.7900000   0.1500000  -0.8200000  -1.4300000
   1.3200000  -0.3000000  -2.7300000   1.5000000  -1.8500000  -1.9600000
   5.0600000   0.3900000   0.7500000   5.2400000  -0.5900000   0.6200000
   5.7700000   1.1900000   1.7300000   5.0500000   1.5100000   2.4800000
   6.6100000   2.3300000   1.1000000   6.6600000   3.5100000   1.5600000
   6.7200000   0.2900000   2.5000000   7.6000000   0.8600000   2.8000000
   7.1100000  -0.4600000   1.8100000   6.0400000  -0.4100000   3.6600000
   4.8000000  -0.2500000   3.8700000   6.7400000  -1.0800000   4.4700000
   7.3400000   1.9600000   0.0000000   7.1400000   1.0500000  -0.3900000
   8.2000000   2.9400000  -0.6700000   8.9200000   3.2800000   0.0800000
   7.4700000   4.1900000  -1.2700000   7.8900000   5.3600000  -1.1300000
   9.1200000   2.2300000  -1.6100000   9.5400000   1.4400000  -0.9900000
   8.5700000   1.8200000  -2.4600000  10.2800000   3.1400000  -2.0300000
   9.9200000   3.9300000  -2.6800000  10.6400000   3.6000000  -1.1100000
  11.4000000   2.4800000  -2.8400000  11.2000000   1.8000000  -3.8400000
  12.5500000   2.6500000  -2.4300000   6.3300000   3.9400000  -1.8800000
   5.9300000   3.0100000  -1.8500000   5.4300000   4.9100000  -2.6000000
   6.0400000   5.6300000  -3.1500000   4.6400000   5.8900000  -1.5700000
   4.3600000   7.0800000  -1.8700000   4.5900000   4.1600000  -3.5700000
   4.4200000   4.8800000  -4.3700000   3.6400000   3.8100000  -3.1700000
   5.2200000   3.3600000  -3.9600000   4.3600000   5.3500000  -0.3200000
   4.6700000   4.4100000  -0.1100000   3.8900000   6.2700000   0.7800000
   3.0800000   6.9100000   0.4200000   5.0800000   7.1600000   1.2700000
   4.8700000   8.3400000   1.3900000   3.2900000   5.3400000   1.9300000
   4.0300000   4.5500000   2.0100000   1.9200000   4.7900000   1.4900000
   1.1700000   5.5800000   1.5100000   1.9600000   4.2900000   0.5200000
   3.1300000   6.1600000   3.1900000   2.5700000   5.4900000   3.8400000
   4.1400000   6.3300000   3.5700000   2.6400000   7.1000000   2.9500000
   1.3200000   3.8100000   2.5100000   0.4300000   3.3500000   2.0900000
   0.9900000   4.3700000   3.3800000   1.9900000   3.0100000   2.8400000
   6.3300000   6.6300000   1.3500000   6.4500000   5.6900000   1.0100000
   7.4900000   7.3700000   1.7700000   7.1300000   7.9500000   2.6200000
   7.8900000   8.3800000   0.6400000   7.9400000   9.5500000   0.9200000
   8.6200000   6.4100000   2.1500000   8.4100000   5.8900000   3.0800000
   8.8700000   5.7100000   1.3500000   9.4800000   7.0500000   2.3500000
   7.8300000   8.0100000  -0.6000000   7.5200000   7.0600000  -0.7500000
   8.1600000   8.8000000  -1.7900000   9.1200000   9.2600000  -1.5600000
   7.1400000   9.9200000  -2.1100000   7.2000000  10.5100000  -3.2100000
   8.4100000   7.8000000  -2.9400000   7.5000000   7.2200000  -3.0800000
   8.6800000   8.4200000  -3.8000000   9.1800000   7.0500000  -2.7400000
   6.1000000  10.2000000  -1.2900000   6.0600000   9.6800000  -0.4200000
   5.1000000  11.2700000  -1.5900000   5.6700000  12.1600000  -1.8300000
   4.5200000  11.4600000  -0.6800000   4.0400000  11.0000000  -2.6700000
   3.1800000  11.8700000  -2.8600000   4.1000000   9.8600000  -3.3200000
   4.7900000   9.1700000  -3.0900000   3.2600000   9.5400000  -4.5000000
   3.1600000  10.4500000  -5.1000000   1.9100000   9.0100000  -4.1000000
   0.8900000   9.2300000  -4.7800000   3.9600000   8.4700000  -5.3400000
   4.0600000   7.6300000  -4.6500000   3.3200000   8.1400000  -6.1500000
   5.2600000   8.7500000  -6.0000000   5.9800000   9.1900000  -5.3100000
   5.8700000   7.5100000  -6.6800000   5.0900000   7.0000000  -7.2500000
   6.1600000   6.7500000  -5.9600000   6.6600000   7.7700000  -7.3800000
   5.0200000   9.7600000  -7.1300000   4.3500000   9.3800000  -7.9100000
   4.4700000  10.6100000  -6.7400000   5.9600000  10.1100000  -7.5500000
   1.8300000   8.3400000  -2.9300000   2.6600000   8.3100000  -2.3500000
   0.5100000   8.0500000  -2.3300000  -0.2300000   8.6500000  -2.8700000
   0.4600000   8.5200000  -0.8900000   1.4100000   8.2900000  -0.1700000
   0.1400000   6.5900000  -2.4800000  -0.6300000   6.4900000  -1.7100000
  -0.4400000   6.3400000  -3.8700000  -1.4700000   6.7200000  -3.8700000
  -0.5000000   5.2700000  -4.0400000   0.1200000   6.8000000  -4.6900000
   1.2100000   5.5800000  -2.1500000   0.7000000   4.6700000  -1.8400000
   1.8500000   5.4400000  -3.0200000   1.6500000   6.0200000  -1.2600000
  -0.5800000   9.1500000  -0.3400000  -1.3200000   9.3700000  -0.9900000
  -0.8200000   9.4400000   1.0600000   0.1900000   9.5900000   1.4300000
  -1.3800000   8.3100000   2.0000000  -1.2200000   8.4400000   3.2000000
  -1.5700000  10.8100000   1.1900000  -1.8000000  10.9100000   2.2500000
  -2.6700000  10.9900000   0.2600000  -2.9700000  10.1100000   0.0200000
  -0.6800000  12.0100000   0.7900000   0.1900000  11.9900000   1.4500000
  -0.3700000  11.9200000  -0.2500000  -1.2100000  12.9400000   0.9700000
  -2.0800000   7.3400000   1.4600000  -2.3800000   7.4600000   0.5100000
  -2.6200000   6.1300000   2.1100000  -2.0300000   5.8800000   2.9900000
  -2.8000000   4.9900000   1.0900000  -2.8200000   5.1800000  -0.0900000
  -3.9700000   6.4500000   2.7100000  -4.0700000   5.6900000   3.4900000
  -4.0700000   7.4300000   3.1800000  -4.9900000   6.3800000   1.7800000
  -4.7000000   6.9100000   1.0300000  -3.0400000   3.7100000   1.6100000
  -3.2900000   3.6000000   2.5800000  -3.2700000   2.5200000   0.8300000
  -2.4100000   2.3900000   0.1800000  -4.5100000   2.7000000  -0.1100000
  -4.4400000   2.3000000  -1.2400000  -3.5100000   1.4000000   1.9200000
  -4.5900000   1.3000000   1.9200000  -3.2800000   1.6900000   2.9400000
  -2.8100000   0.0800000   1.5500000  -1.7500000   0.3700000   1.5300000
  -2.8600000  -0.8900000   2.7900000  -2.2900000  -1.7900000   2.5900000
  -2.5400000  -0.2500000   3.6200000  -3.9100000  -1.1400000   2.8900000
  -3.2800000  -0.6400000   0.2700000  -2.9200000  -0.0400000  -0.5600000
  -4.3600000  -0.6200000   0.1800000  -2.9100000  -1.6600000   0.2000000
  -5.6100000   3.4000000   0.3200000  -5.5400000   3.9600000   1.1600000
  -6.8100000   3.7500000  -0.4600000  -7.2800000   2.8800000  -0.9200000
  -6.5100000   4.6500000  -1.6600000  -7.2300000   4.6200000  -2.6600000
  -7.8400000   4.5200000   0.4400000  -8.4500000   5.1600000  -0.2000000
  -7.3100000   5.2300000   1.0800000  -8.8400000   3.5600000   1.1900000
  -8.6700000   2.3200000   1.1400000  -9.6800000   3.9900000   2.0600000
  -5.4700000   5.4300000  -1.6100000  -5.0100000   5.4700000  -0.7100000
  -4.9500000   6.2000000  -2.7200000  -5.7600000   6.7000000  -3.2500000
  -4.1900000   5.3300000  -3.7200000  -4.0300000   5.7500000  -4.9200000
  -4.0100000   7.3000000  -2.1800000  -3.4900000   7.8400000  -2.9800000
  -3.1800000   6.8600000  -1.6400000  -4.5500000   8.2700000  -1.1900000
  -5.7100000   8.7000000  -1.2600000  -3.7900000   8.6100000  -0.2700000
  -3.5600000   4.2200000  -3.3600000  -3.8400000   3.8400000  -2.4700000
  -2.7100000   3.4200000  -4.2100000  -2.1700000   4.1600000  -4.8100000
  -3.5600000   2.6500000  -5.2500000  -4.5900000   2.0000000  -4.8900000
  -1.6600000   2.5500000  -3.4700000  -1.2800000   3.1600000  -2.6500000
  -2.2100000   1.7300000  -2.9900000  -0.4700000   1.9500000  -4.2800000
   0.8200000   2.5000000  -4.1400000   0.9900000   3.3300000  -3.4700000
  -0.6700000   0.9000000  -5.2500000  -1.6800000   0.5600000  -5.4300000
   1.8800000   2.0200000  -4.9200000   2.8500000   2.4800000  -4.8300000
   0.3600000   0.4700000  -6.0700000   0.1200000  -0.2700000  -6.8200000
   1.6500000   0.9800000  -5.8500000   2.4800000   0.6200000  -6.4500000
  -3.2400000   2.8900000  -6.5100000  -2.4700000   3.4900000  -6.7600000
  -3.9100000   2.2900000  -7.6700000  -4.9300000   2.0200000  -7.4000000
  -3.1500000   1.0100000  -8.1900000  -1.9100000   1.1200000  -8.3600000
  -4.1900000   3.3500000  -8.7100000  -4.8100000   4.1300000  -8.2700000
  -3.2600000   3.9000000  -8.8700000  -4.8000000   2.8600000  -9.9500000
  -5.5300000   1.8600000  -9.9600000  -4.5500000   3.4800000 -10.9900000
  -3.8700000  -0.1300000  -8.3700000  -4.8100000  -0.2100000  -8.0200000
  -3.2700000  -1.4300000  -8.6100000  -2.1900000  -1.4400000  -8.4500000
  -3.5000000  -1.9900000 -10.0100000  -4.5900000  -1.7600000 -10.5600000
  -3.9700000  -2.3000000  -7.5800000  -5.0600000  -2.2700000  -7.6300000
  -3.6400000  -3.2900000  -7.9100000  -3.5400000  -2.2300000  -6.1400000
  -4.3600000  -1.8100000  -5.1300000  -5.3000000  -1.3000000  -5.2600000
  -2.3100000  -2.8400000  -5.4600000  -3.6600000  -1.9500000  -3.9200000
  -4.0200000  -1.5700000  -3.0600000  -2.4100000  -2.5200000  -4.0700000
  -1.0700000  -3.3400000  -5.9700000  -1.0200000  -3.4600000  -7.0400000
  -1.3000000  -2.7300000  -3.2000000  -1.3200000  -2.2900000  -2.2200000
   0.0300000  -3.5700000  -5.0700000   0.9800000  -3.9100000  -5.4400000
  -0.1100000  -3.3800000  -3.6800000   0.7100000  -3.4800000  -2.9800000
  -2.6700000  -2.7700000 -10.5700000   0.5390000   2.0910000   3.9060000
  -0.1880000   0.8600000   4.1210000  -1.5420000   0.9020000   4.2820000
  -2.2620000   2.0940000   4.2580000  -3.6340000   2.0830000   4.4350000
  -4.3040000   0.8870000   4.6220000  -5.7880000   0.8580000   4.8040000
  -6.3210000  -0.1470000   5.2240000  -6.6220000   2.0380000   4.4940000
  -7.5250000   2.5130000   5.4400000  -8.3030000   3.6300000   5.1490000
  -8.2180000   4.2580000   3.9140000  -7.3460000   3.7530000   2.9620000
  -6.5460000   2.6470000   3.2510000  -3.5860000  -0.3170000   4.6500000
  -4.2570000  -1.4930000   4.8450000  -2.2020000  -0.2910000   4.4810000
   0.8018000   2.5360000   4.8770000   1.4575000   1.8801000   3.3387000
  -0.0892000   2.7935000   3.3387000  -1.7378000   3.0477000   4.0977000
  -4.1947000   3.0293000   4.4270000  -7.6236000   2.0086000   6.4125000
  -8.9955000   4.0209000   5.9091000  -8.8332000   5.1429000   3.6941000
  -7.2843000   4.2277000   1.9716000  -5.8532000   2.2573000   2.4906000
  -3.7599000  -2.3489000   4.8665000  -1.6320000  -1.2315000   4.5068000
