
  392  0.0000000e+00
  21.4160000  10.2400000  -5.0060000  20.8730000   9.9810000  -4.1940000
  22.3770000  10.3450000  -4.7120000  21.3450000   9.4850000  -5.6730000
  20.9130000  11.5760000  -5.5030000  21.5340000  12.0910000  -6.2360000
  20.7700000  12.2790000  -4.6820000  19.5250000  11.4280000  -6.0540000
  18.8290000  10.5130000  -5.6100000  19.1820000  12.1640000  -7.1660000
  19.9140000  12.7960000  -7.4570000  17.8790000  12.1410000  -7.8230000
  17.1010000  12.4450000  -7.1230000  17.3650000  10.7200000  -8.2770000
  16.2440000  10.4130000  -8.0220000  17.9680000  13.1270000  -9.0430000
  16.9920000  13.6120000  -9.0400000  17.9830000  12.4600000  -9.9050000
  18.7360000  13.8990000  -8.9930000  18.1670000   9.9530000  -8.9020000
  19.1240000  10.1840000  -9.1280000  17.7940000   8.5620000  -9.3870000
  17.0140000   8.7290000 -10.1290000  17.5300000   7.4980000  -8.2690000
  16.4810000   6.9010000  -8.1840000  18.9150000   8.0210000 -10.3390000
  18.7320000   6.9760000 -10.5900000  19.9310000   8.1730000  -9.9720000
  18.7860000   8.5610000 -11.2770000  18.5090000   7.4780000  -7.2990000
  19.3790000   7.9780000  -7.4200000  18.4000000   6.6680000  -6.1430000
  18.2800000   5.6130000  -6.3920000  17.1590000   7.1270000  -5.3430000
  16.3340000   6.3000000  -4.9440000  19.6880000   6.9080000  -5.3500000
  19.5370000   6.6200000  -4.3090000  20.5650000   6.4880000  -5.8420000
  19.8410000   7.9830000  -5.2550000  17.0250000   8.4120000  -5.1220000
  17.6470000   9.0150000  -5.6420000  15.8700000   8.9590000  -4.3540000
  15.8530000   8.4540000  -3.3890000  14.4750000   8.7280000  -5.0300000
  13.5310000   8.2660000  -4.4240000  16.0050000  10.4650000  -4.1630000
  16.8580000  10.5990000  -3.4970000  15.1630000  10.9740000  -3.6950000
  16.2850000  10.9200000  -5.1140000  14.3910000   8.7530000  -6.3830000
  15.2280000   9.0190000  -6.8820000  13.2050000   8.3520000  -7.1530000
  12.3650000   8.9750000  -6.8470000  12.8290000   6.9170000  -7.0050000
  11.6810000   6.5570000  -6.8510000  13.4430000   8.6930000  -8.6280000
  14.2390000   8.0590000  -9.0190000  12.5650000   8.3560000  -9.1780000
  13.6520000   9.7510000  -8.7900000  13.7720000   5.9950000  -6.9980000
  14.7300000   6.3080000  -7.0680000  13.6340000   4.5780000  -6.8080000
  12.9510000   4.2010000  -7.5700000  13.1720000   4.2400000  -5.4120000
  12.2620000   3.4310000  -5.2220000  14.9460000   3.8740000  -7.1140000
  15.3390000   4.2760000  -8.0470000  15.6570000   4.0050000  -6.2970000
  14.7410000   2.8090000  -7.2260000  13.6260000   4.9710000  -4.4110000
  14.5200000   5.4210000  -4.5450000  13.0610000   4.9640000  -3.0330000
  13.0970000   3.9310000  -2.6870000  11.6030000   5.5290000  -2.8280000
  10.8290000   4.9280000  -2.1060000  13.9810000   5.7960000  -2.0910000
  13.6470000   5.6900000  -1.0590000  15.0130000   5.4900000  -2.2650000
  13.8520000   6.8660000  -2.2520000  11.2120000   6.5700000  -3.5400000
  11.9420000   7.1500000  -3.9260000   9.9090000   7.2190000  -3.4540000
   9.6380000   7.2910000  -2.4010000   8.9300000   6.2770000  -4.1660000
   7.8790000   5.9400000  -3.6290000   9.9050000   8.6420000  -4.0860000
  10.3940000   8.5640000  -5.0570000  10.5680000   9.6630000  -3.1610000
   9.9400000   9.7800000  -2.2780000  11.4820000   9.2740000  -2.7120000
   8.4200000   9.0790000  -4.3830000   8.4670000  10.1000000  -4.7630000
   7.9230000   8.9470000  -3.4220000   7.9550000   8.4880000  -5.1720000
  10.9520000  11.0230000  -3.7630000  10.0060000  11.5080000  -4.0030000
  11.5260000  11.6200000  -3.0550000  11.6080000  10.8810000  -4.6220000
   9.2900000   5.7740000  -5.3740000  10.1870000   5.9370000  -5.8080000
   8.3700000   4.9590000  -6.1710000   7.4310000   5.5120000  -6.1630000
   8.0620000   3.5960000  -5.4180000   6.9320000   3.1860000  -5.4320000
   8.9370000   4.6900000  -7.5750000   8.9540000   5.6270000  -8.1330000
   8.3090000   3.9630000  -8.0880000   9.8990000   4.1880000  -7.4740000
   9.0780000   3.0450000  -4.8160000  10.0020000   3.4330000  -4.9390000
   8.9370000   1.9330000  -3.9210000   8.4690000   1.1210000  -4.4780000
   8.0760000   2.2030000  -2.6570000   7.3210000   1.3270000  -2.2280000
  10.3950000   1.4540000  -3.4620000  10.3640000   0.5170000  -2.9060000
  11.0850000   1.2920000  -4.2900000  10.7470000   2.2750000  -2.8370000
   8.2570000   3.3310000  -1.9720000   8.9590000   3.9850000  -2.2900000
   7.4490000   3.7370000  -0.8320000   7.5900000   3.0780000   0.0240000
   5.9860000   3.9470000  -1.1150000   5.1570000   3.4050000  -0.3870000
   8.1150000   5.0700000  -0.3220000   7.9430000   5.8350000  -1.0790000
   7.5600000   5.3350000   0.5780000   9.1730000   4.9650000  -0.0830000
   5.5730000   4.6600000  -2.2260000   6.2600000   5.0290000  -2.8670000
   4.1690000   4.8440000  -2.5650000   3.6870000   5.2810000  -1.6900000
   3.5180000   3.5300000  -3.0040000   2.3930000   3.1920000  -2.6220000
   4.0710000   5.8280000  -3.6990000   4.4920000   6.8080000  -3.4750000
   3.0040000   5.8170000  -3.9200000   4.6950000   5.4260000  -4.4970000
   4.2500000   2.7650000  -3.8110000   5.2060000   3.0450000  -3.9750000
   3.7230000   1.4860000  -4.2290000   2.7480000   1.6750000  -4.6790000
   3.5040000   0.4560000  -3.0600000   2.4730000  -0.2860000  -3.0920000
   4.6610000   0.7880000  -5.2370000   4.4580000   1.2620000  -6.1980000
   4.5050000  -0.2870000  -5.3300000   5.7190000   0.9150000  -5.0060000
   4.2490000   0.4580000  -1.9650000   5.1200000   0.9700000  -1.9460000
   3.8510000  -0.2680000  -0.7140000   3.5550000  -1.2630000  -1.0460000
   2.5900000   0.3480000   0.0020000   1.7410000  -0.3850000   0.4930000
   5.0050000  -0.3430000   0.2820000   5.2340000   0.5890000   0.8000000
   4.6370000  -0.9510000   1.1080000   5.8900000  -0.8240000  -0.1350000
   2.4140000   1.6900000   0.0010000   3.2280000   2.2590000  -0.1810000
   1.2220000   2.3640000   0.5150000   1.0150000   2.0810000   1.5470000
  -0.0550000   2.0470000  -0.3220000  -1.1200000   1.8320000   0.2690000
   1.4080000   3.8680000   0.4920000   2.2410000   4.0780000   1.1640000
   0.5190000   4.3330000   0.9170000   1.6080000   4.1960000  -0.5280000
  -0.0460000   1.9430000  -1.6510000   0.7550000   2.3690000  -2.0940000
  -1.0850000   1.4300000  -2.4650000  -1.9880000   1.9870000  -2.2140000
  -1.3230000  -0.0700000  -2.2980000  -2.4790000  -0.5030000  -2.3600000
  -0.7670000   1.7810000  -3.9760000  -0.7340000   2.8700000  -3.9800000
   0.1230000   1.2810000  -4.3590000  -1.6010000   1.5280000  -4.6300000
  -0.2550000  -0.8820000  -2.0110000   0.6200000  -0.4030000  -1.8560000
  -0.4060000  -2.2610000  -1.5880000  -1.1050000  -2.7610000  -2.2580000
  -1.1150000  -2.4420000  -0.2570000  -2.0040000  -3.3590000  -0.0790000
   0.9650000  -2.8790000  -1.5440000   0.8470000  -3.9470000  -1.3630000
   1.5750000  -2.6710000  -2.4230000   1.5230000  -2.4550000  -0.7100000
  -0.8650000  -1.5810000   0.7580000  -0.1360000  -0.8980000   0.6070000
  -1.6560000  -1.5770000   2.0410000  -1.5910000  -2.5640000   2.5000000
  -3.1500000  -1.2540000   1.7680000  -3.9910000  -1.8880000   2.4080000
  -0.9930000  -0.5000000   2.8840000   0.0720000  -0.6940000   3.0170000
  -1.4470000  -0.6100000   3.8680000  -1.2210000   0.5050000   2.5300000
  -3.3920000  -0.2900000   0.8400000  -2.6310000   0.1450000   0.3380000
  -4.7800000   0.0460000   0.5360000  -5.2770000   0.1990000   1.4930000
  -5.5210000  -1.1420000  -0.1890000  -6.7040000  -1.4330000   0.1440000
  -4.8230000   1.3130000  -0.3310000  -4.4090000   1.1160000  -1.3200000
  -4.3030000   2.0680000   0.2590000  -5.8190000   1.7380000  -0.4540000
  -4.8180000  -1.9290000  -1.0820000  -3.9300000  -1.5910000  -1.4260000
  -5.3690000  -3.1880000  -1.6150000  -6.3240000  -2.9390000  -2.0770000
  -5.6570000  -4.2620000  -0.5470000  -6.8080000  -4.7910000  -0.4660000
  -4.3580000  -3.8240000  -2.6270000  -3.4090000  -4.0690000  -2.1500000
  -4.1750000  -3.0490000  -3.3710000  -4.8080000  -4.6680000  -3.1500000
  -4.7160000  -4.4730000   0.3760000  -3.8270000  -4.0060000   0.2680000
  -4.9390000  -5.3030000   1.6230000  -5.2100000  -6.2820000   1.2290000
  -6.0020000  -4.8950000   2.6060000  -6.6700000  -5.7620000   3.2430000
  -3.5350000  -5.5280000   2.2830000  -3.6120000  -6.5100000   2.7490000
  -3.2940000  -4.7130000   2.9660000  -2.8730000  -5.5190000   1.4160000
  -6.2660000  -3.5810000   2.8510000  -5.5710000  -2.9410000   2.4960000
  -7.3080000  -2.9970000   3.7110000  -7.4160000  -3.5200000   4.6610000
  -8.7280000  -3.0370000   3.1990000  -9.6560000  -3.3280000   3.9470000
  -6.8310000  -1.5390000   4.0260000  -6.8320000  -1.0000000   3.0790000
  -5.9320000  -1.6580000   4.6310000  -7.4660000  -1.0760000   4.7820000
  -8.8080000  -2.6660000   1.8920000  -8.0070000  -2.3720000   1.3500000
 -10.0780000  -2.9280000   1.2130000 -10.9090000  -2.4400000   1.7230000
 -10.3710000  -4.4380000   1.1770000 -11.5520000  -4.7680000   1.4330000
 -10.0100000  -2.3330000  -0.2000000  -9.7470000  -1.2810000  -0.0850000
 -10.9700000  -2.6020000  -0.6400000  -9.2060000  -2.8580000  -0.7160000
  -9.3840000  -5.3230000   0.9750000  -8.5350000  -4.9740000   0.5550000
  -9.6810000  -6.7140000   1.0770000 -10.3440000  -6.8710000   0.2250000
 -10.2910000  -7.1300000   2.4070000 -11.3230000  -7.8500000   2.4370000
  -8.3830000  -7.4860000   0.7750000  -8.0810000  -7.2690000  -0.2490000
  -8.3500000  -8.5730000   0.8380000  -7.6070000  -7.3380000   1.5260000
  -9.6480000  -6.6570000   3.4990000  -8.8670000  -6.0420000   3.3220000
 -10.0320000  -6.9080000   4.8710000 -10.0790000  -7.9810000   5.0540000
 -11.4090000  -6.3000000   5.1930000 -12.2370000  -7.0250000   5.7550000
  -8.9180000  -6.3270000   5.7920000  -8.8720000  -5.2390000   5.8380000
  -7.9180000  -6.6490000   5.5020000  -9.0970000  -6.8110000   6.7520000
 -11.6750000  -5.0540000   4.8930000 -10.9000000  -4.5850000   4.4470000
 -13.0010000  -4.3890000   4.9400000 -13.2400000  -4.3240000   6.0020000
 -14.1180000  -5.1690000   4.2260000 -15.0420000  -5.5930000   4.9220000
 -12.8750000  -2.9180000   4.4770000 -13.7910000  -2.3600000   4.6730000
 -12.0330000  -2.4140000   4.9510000 -12.8320000  -2.9160000   3.3880000
 -13.9460000  -5.4740000   2.9240000 -13.0910000  -5.1740000   2.4800000
 -14.7900000  -6.4220000   2.2620000 -15.7880000  -5.9840000   2.2470000
 -14.9300000  -7.7940000   2.9670000 -16.0660000  -8.3230000   3.0350000
 -14.2510000  -6.6260000   0.8260000 -14.2350000  -5.6280000   0.3860000
 -14.8420000  -7.3160000   0.2240000 -13.2790000  -7.1130000   0.9080000
 -13.9090000  -8.3710000   3.5470000 -13.0050000  -7.9590000   3.3650000
 -13.9940000  -9.6330000   4.2540000 -14.4960000 -10.3370000   3.5910000
 -14.8250000  -9.5480000   5.5690000 -15.6780000 -10.3760000   5.8680000
 -12.6220000 -10.1830000   4.4170000 -12.6480000 -11.2260000   4.7320000
 -12.1210000 -10.0760000   3.4550000 -12.1680000  -9.5400000   5.1710000
 -14.6830000  -8.4450000   6.3370000 -14.0850000  -7.7070000   5.9950000
 -15.3960000  -8.2380000   7.6120000 -15.2480000  -9.0980000   8.2640000
 -16.8870000  -8.0090000   7.3000000 -17.7470000  -8.2960000   8.1750000
 -14.8050000  -7.0000000   8.2620000 -15.3290000  -6.9280000   9.2150000
 -14.8890000  -6.0920000   7.6630000 -13.7390000  -7.1020000   8.4670000
 -17.2790000  -7.5050000   6.0820000 -16.4880000  -7.3120000   5.4850000
 -18.5390000  -7.2520000   5.5530000 -19.1930000  -6.9560000   6.3730000
 -19.1320000  -8.5120000   4.9170000 -20.3460000  -8.6150000   4.8090000
 -18.5500000  -6.1520000   4.4260000 -19.5540000  -6.1000000   4.0060000
 -17.9710000  -6.3600000   3.5260000 -18.1850000  -4.7590000   4.9020000
 -17.3620000  -4.8100000   5.6160000 -17.7560000  -3.9480000   3.7140000
 -16.9150000  -4.4770000   3.2670000 -17.4320000  -3.0500000   4.2400000
 -18.6100000  -3.9220000   3.0360000 -19.3980000  -4.1240000   5.5470000
 -20.0990000  -4.8540000   5.9510000 -20.0750000  -3.7260000   4.7900000
 -19.2080000  -3.2970000   6.2320000 -18.3450000  -9.4880000   4.4670000
 -17.3670000  -9.3470000   4.6750000 -18.6980000 -10.6790000   3.7200000
 -19.2930000 -10.2380000   2.9200000 -19.6100000 -11.7240000   4.4580000
 -20.3140000 -12.4830000   3.7510000 -17.4140000 -11.3230000   3.0900000
 -16.9120000 -10.6270000   2.4180000 -17.7080000 -12.2210000   2.5470000
 -16.6760000 -11.5870000   3.8480000 -19.6130000 -11.7130000   5.8110000
 -18.8940000 -11.1630000   6.2590000 -20.2810000 -12.6700000   6.6260000
 -21.0780000 -13.1300000   6.0410000 -21.0390000 -12.0140000   7.7980000
 -22.2970000 -12.0690000   7.7210000 -19.2880000 -13.7950000   7.0310000
 -19.0520000 -14.4300000   6.1770000 -19.7730000 -14.2650000   7.8870000
 -18.3660000 -13.3500000   7.4050000 -20.4290000 -11.4360000   8.7110000
   4.9350000   3.5520000   3.0730000   3.9670000   2.5520000   3.7290000
   4.5520000   1.1640000   3.6850000   3.5680000   0.0900000   4.1810000
   3.4450000  -1.0330000   3.1920000   4.8180000  -1.3130000   2.6140000
   4.6970000  -1.7370000   1.0980000   2.8110000  -2.2000000   3.8070000
   1.5160000  -2.5800000   3.3510000   1.3880000  -2.9660000   2.2100000
   0.3010000  -2.4520000   4.2220000   0.0730000  -1.4110000   5.0840000
  -1.2460000  -1.2990000   5.8080000  -2.1250000  -2.3630000   5.8280000
  -3.3400000  -2.2010000   6.4890000  -3.7030000  -1.0210000   7.1250000
  -4.9390000  -0.8840000   7.7480000  -5.9020000  -1.8980000   7.4300000
  -2.8150000   0.0250000   7.0660000  -1.5810000  -0.1050000   6.4160000
   5.4732164   4.1080087   3.8547784   5.6572412   3.0067829   2.4476154
   4.3665898   4.2561335   2.4476154   3.7972814   2.8427601   4.7762126
   3.0135192   2.5595629   3.1805320   4.8318062   0.9325808   2.6466582
   5.4251526   1.1495994   4.3538776   3.9297820  -0.3132070   5.1383599
   2.5787250   0.5548348   4.3045463   2.7829620  -0.7534668   2.3591934
   5.4354638  -0.4057518   2.6890943   5.2842460  -2.1333581   3.1793559
   4.3956230  -2.7930650   1.0355619   3.9418720  -1.1102024   0.6011032
   5.6692016  -1.6031431   0.6011032  -0.4574386  -3.2466808   4.1649624
   0.8544425  -0.6545110   5.2485358  -1.8725860  -3.3134161   5.3350534
  -4.0440604  -3.0459435   6.5082225  -6.3065733  -2.3239993   8.3599704
  -6.7202857  -1.4553854   6.8430581  -5.4177841  -2.6923766   6.8430581
  -3.0777977   0.9831212   7.5381665  -0.8800435   0.7423349   6.3898544
