
  505  0.0000000e+00
  -6.4940000  -2.6440000  12.1340000  -6.6850000  -2.0890000  12.9550000
  -7.0750000  -3.4690000  12.1770000  -6.7390000  -2.1700000  11.2760000
  -5.0410000  -3.0340000  12.1930000  -4.9390000  -3.6640000  13.0770000
  -4.7330000  -3.3840000  11.2070000  -4.1330000  -1.7870000  12.2030000
  -4.5280000  -0.6960000  11.7700000  -2.9020000  -1.9520000  12.6900000
  -2.1070000  -0.7960000  13.0430000  -2.7850000  -0.0060000  13.3630000
  -1.3170000  -0.1330000  11.9320000  -0.7620000   0.9320000  12.3330000
  -1.1980000  -1.2470000  14.2660000  -1.3680000  -0.7050000  15.1960000
  -0.2060000  -0.9220000  13.9500000  -1.6110000  -2.7060000  14.5600000
  -0.7340000  -3.3120000  14.7910000  -2.2940000  -2.9210000  15.3830000
  -2.2420000  -3.0730000  13.2350000  -1.4850000  -3.4850000  12.5670000
  -2.9580000  -3.8730000  13.4230000  -1.3470000  -0.6420000  10.7000000
  -2.0130000  -1.3970000  10.6170000  -0.5560000  -0.1620000   9.5340000
  -0.0150000   0.7290000   9.8530000  -1.2740000   0.2880000   8.3370000
  -0.6020000   0.9970000   7.6520000   0.4970000  -1.2440000   9.1850000
  -0.0620000  -2.1330000   8.8960000   1.3150000  -0.8360000   8.5910000
   1.3860000  -1.6210000  10.3650000   2.1630000  -0.6770000  10.9360000
   2.4480000   0.1870000  10.3540000   1.0510000  -2.7200000  11.2300000
   0.3620000  -3.4410000  10.8170000   2.6630000  -0.6590000  12.2490000
   3.2350000   0.1390000  12.6980000   1.4850000  -2.7780000  12.5770000
   1.0370000  -3.5280000  13.2120000   2.4270000  -1.8300000  13.0490000
   2.8090000  -1.9050000  14.0560000  -2.5440000  -0.0560000   8.1930000
  -2.9030000  -0.6640000   8.9160000  -3.3330000   0.1430000   6.9730000
  -3.0380000  -0.4670000   6.1190000  -3.3130000   1.6050000   6.4880000
  -3.0380000   1.8050000   5.3310000  -4.7500000  -0.2910000   7.2960000
  -4.8490000  -1.3150000   7.6580000  -5.2660000   0.3350000   8.0240000
  -5.5680000  -0.3790000   6.0720000  -5.7410000   0.6480000   5.7510000
  -5.0770000  -1.1070000   5.4250000  -6.9510000  -0.9610000   6.3210000
  -7.7500000  -1.0280000   5.3680000  -7.3090000  -1.4520000   7.3910000
  -3.6000000   2.6200000   7.3040000  -4.0650000   2.3690000   8.1650000
  -3.4310000   4.0680000   7.1380000  -4.1820000   4.4120000   6.4270000
  -2.0710000   4.4740000   6.4900000  -2.1230000   5.4260000   5.7050000
  -3.8900000   4.7800000   8.3570000  -3.1210000   4.8520000   9.1260000
  -4.8050000   4.3250000   8.7360000  -4.0790000   5.8270000   8.1220000
  -0.9670000   3.8600000   6.8380000  -1.0940000   3.0320000   7.4030000
   0.3480000   4.2120000   6.2720000   0.2390000   5.2400000   5.9260000
   0.5420000   3.3810000   5.0220000   0.8030000   3.9340000   3.9720000
   1.4620000   4.0220000   7.3080000   1.2200000   3.1960000   7.9780000
   1.3830000   4.9110000   7.9340000   2.4380000   3.9670000   6.8260000
   0.4410000   2.0580000   5.1130000   0.0390000   1.7170000   5.9740000
   0.5350000   1.0750000   4.0100000   1.5860000   0.9050000   3.7770000
  -0.1760000   1.6970000   2.7870000   0.5050000   1.9230000   1.7410000
  -0.1160000  -0.2530000   4.3750000  -1.0680000   0.0350000   4.8210000
  -0.3870000  -1.1520000   3.1280000  -1.2340000  -0.7860000   2.5480000
  -0.5500000  -2.1880000   3.4260000   0.4740000  -1.0490000   2.4680000
   0.7770000  -0.9930000   5.3390000   1.1310000  -0.3550000   6.1490000
   1.6770000  -1.3630000   4.8490000   0.3260000  -1.8400000   5.8560000
  -1.4240000   2.2040000   2.8020000  -1.9420000   2.1690000   3.6680000
  -2.2000000   2.6760000   1.6140000  -1.9250000   2.0570000   0.7590000
  -1.8500000   4.1150000   1.2830000  -1.8950000   4.4350000   0.1350000
  -3.7260000   2.4990000   1.7750000  -4.2430000   2.8950000   0.9010000
  -4.0930000   3.1270000   2.5870000  -4.1230000   1.0760000   2.2170000
  -3.6270000   0.7850000   3.1430000  -3.7030000   0.3530000   1.5170000
  -5.6770000   0.8120000   2.3760000  -6.0160000   1.2120000   3.3310000
  -6.1810000   1.3540000   1.5750000  -6.0050000  -0.6580000   2.2690000
  -6.3060000  -1.1110000   3.1200000  -6.0880000  -1.4870000   1.2650000
  -5.7460000  -1.0530000   0.0940000  -5.8770000  -1.6270000  -0.7270000
  -5.4630000  -0.0840000   0.0570000  -6.4520000  -2.6660000   1.2980000
  -6.6680000  -3.1030000   2.1830000  -6.4780000  -3.1420000   0.4080000
  -1.4350000   5.0230000   2.1960000  -1.3930000   4.6350000   3.1280000
  -0.8910000   6.3640000   1.8800000  -1.6490000   6.8960000   1.3040000
   0.4210000   6.0550000   1.0730000   0.6930000   6.7720000   0.0840000
  -0.6160000   7.0200000   3.1970000  -1.5100000   7.0810000   3.8180000
  -0.0220000   6.3270000   3.7930000  -0.0200000   8.4520000   3.0740000
   0.2450000   8.7620000   4.0850000   0.9040000   8.3940000   2.4990000
  -0.9310000   9.4510000   2.4220000  -1.8140000   9.2100000   1.5870000
  -0.6330000  10.6530000   2.5900000   1.2620000   5.0920000   1.4170000
   0.9830000   4.4940000   2.1810000   2.5080000   4.8980000   0.6740000
   2.9020000   5.8960000   0.4820000   2.2480000   4.2230000  -0.6430000
   2.9440000   4.6220000  -1.6080000   3.3970000   4.0220000   1.5330000
   4.3260000   3.8450000   0.9900000   2.9300000   3.0450000   1.6550000
   3.8420000   4.6200000   2.8640000   2.9190000   4.9510000   3.3420000
   4.5790000   3.5700000   3.7170000   4.8150000   3.9890000   4.6950000
   5.4750000   3.2490000   3.1850000   3.9980000   2.6930000   4.0030000
   4.8960000   5.6980000   2.7530000   4.4360000   6.5220000   2.2090000
   5.2470000   6.0330000   3.7290000   5.7930000   5.3520000   2.2380000
   1.2110000   3.2930000  -0.7220000   0.7080000   3.0110000   0.1070000
   0.8640000   2.6480000  -2.0320000   1.7060000   2.1040000  -2.4600000
   0.2660000   3.6390000  -3.0240000   0.7100000   3.7140000  -4.1750000
  -0.1440000   1.5500000  -1.6770000  -0.2630000   0.7800000  -2.4390000
   0.1990000   1.0980000  -0.7460000  -1.0940000   2.0490000  -1.4870000
  -0.5370000   4.6280000  -2.5470000  -0.9030000   4.5580000  -1.6080000
  -1.1590000   5.5860000  -3.3270000  -1.6390000   5.1230000  -4.1890000
  -0.0690000   6.6110000  -3.7790000  -0.1490000   7.1060000  -4.8860000
  -2.2340000   6.3610000  -2.4390000  -1.8770000   6.5840000  -1.4340000
  -3.0010000   5.5870000  -2.4290000  -2.8870000   7.5800000  -3.0730000
  -3.5750000   7.3240000  -3.8790000  -2.1270000   8.2460000  -3.4810000
  -3.5360000   8.5080000  -2.0610000  -4.1220000   9.2750000  -2.5670000
  -4.2120000   7.8830000  -1.4760000  -2.5670000   9.2350000  -1.2310000
  -2.4100000   8.9050000  -0.2890000  -2.0080000  10.3550000  -1.5410000
  -2.1140000  10.9870000  -2.6650000  -2.4980000  10.6220000  -3.5250000
  -1.6660000  11.8910000  -2.6440000  -1.3600000  10.9700000  -0.6200000
  -0.8050000  11.7890000  -0.8250000  -1.5390000  10.6840000   0.3320000
   0.9190000   6.9510000  -2.9110000   0.8610000   6.4790000  -2.0190000
   2.0210000   7.8720000  -3.1530000   1.6350000   8.7500000  -3.6720000
   2.9830000   7.2150000  -4.1520000   3.6480000   7.9310000  -4.9200000
   2.7020000   8.3590000  -1.8860000   3.6710000   8.7850000  -2.1490000
   2.8640000   7.5080000  -1.2260000   1.8400000   9.4420000  -1.2290000
   1.7950000  10.3650000  -1.8060000   0.8400000   9.0130000  -1.1610000
   2.3080000   9.8720000   0.1200000   3.3520000  10.1840000   0.0960000
   2.2570000   9.0200000   0.7970000   1.5390000  11.0750000   0.6350000
   0.7550000  10.9140000   1.2510000   1.8370000  12.3510000   0.4400000
   2.9340000  12.6920000  -0.1710000   3.1520000  13.6500000  -0.4020000
   3.5360000  12.0310000  -0.6410000   1.1000000  13.2510000   1.0090000
   1.4340000  14.1880000   0.8370000   0.3100000  13.0530000   1.6070000
   3.0110000   5.8700000  -4.1790000   2.3420000   5.3290000  -3.6510000
   3.7480000   5.1190000  -5.1970000   4.6790000   5.6700000  -5.3330000
   3.0100000   5.1840000  -6.5470000   3.6630000   5.5450000  -7.5380000
   4.1080000   3.7040000  -4.7800000   4.7790000   3.7610000  -3.9230000
   4.7530000   3.2220000  -5.5160000   3.2310000   3.0840000  -4.5950000
   1.6690000   4.9480000  -6.6470000   1.1510000   4.5090000  -5.8990000
   0.9090000   5.1950000  -7.9060000   1.3400000   4.5860000  -8.7010000
   0.9150000   6.5990000  -8.4840000   0.9490000   6.7370000  -9.7030000
  -0.5780000   4.7410000  -7.5860000  -0.9900000   5.2510000  -6.7150000
  -1.3190000   4.8180000  -8.3820000  -0.6120000   3.6830000  -7.3240000
   0.9910000   7.6610000  -7.6650000   1.0450000   7.3840000  -6.6950000
   1.2850000   9.0710000  -8.0590000   0.5530000   9.3650000  -8.8100000
   2.6680000   9.2930000  -8.7220000   2.9080000  10.1980000  -9.5160000
   1.1870000   9.8220000  -6.7070000   1.8700000   9.4120000  -5.9630000
   0.1750000   9.8520000  -6.3030000   1.5080000  10.8590000  -6.8110000
   3.6380000   8.4840000  -8.2940000   3.4620000   7.7190000  -7.6590000
   4.9750000   8.4300000  -8.9900000   5.1020000   9.3890000  -9.4930000
   4.8930000   7.4360000 -10.1970000   5.9030000   7.0600000 -10.8130000
   6.0800000   8.0780000  -8.0440000   7.0460000   7.9250000  -8.5250000
   6.2620000   8.9470000  -7.4120000   5.8720000   7.2790000  -7.3320000
   3.7190000   6.9070000 -10.5180000   2.9320000   7.2890000 -10.0130000
   3.5010000   6.0940000 -11.6930000   4.1150000   6.4040000 -12.5390000
   2.4500000   6.0660000 -11.9820000   3.9700000   4.6370000 -11.4910000
   4.0350000   3.9080000 -12.4990000   4.1650000   4.2130000 -10.2580000
   3.9980000   4.8890000  -9.5260000   4.5380000   2.8270000  -9.9070000
   4.6010000   2.1550000 -10.7630000   3.4800000   2.2730000  -8.9450000
   3.4040000   2.6050000  -7.7610000   5.9040000   2.8820000  -9.1610000
   5.9300000   3.6530000  -8.3910000   6.9220000   3.1870000 -10.3710000
   7.2070000   2.3130000 -10.9570000   6.5170000   3.8220000 -11.1580000
   6.3160000   1.6140000  -8.4330000   5.7720000   1.4530000  -7.5020000
   6.2640000   0.6970000  -9.0200000   7.2760000   1.8480000  -7.9730000
   8.2180000   3.8470000  -9.9290000   8.8790000   3.9540000 -10.7890000
   8.0820000   4.8710000  -9.5790000   8.6780000   3.3010000  -9.1050000
   2.5480000   1.4870000  -9.5200000   2.6540000   1.3890000 -10.5200000
   1.2460000   1.3080000  -8.9610000   1.1560000   2.0700000  -8.1870000
   1.0990000  -0.0710000  -8.3360000   1.2030000  -1.1100000  -9.0140000
   0.0830000   1.5900000  -9.9110000   0.2160000   2.6600000 -10.0700000
   0.1720000   1.0050000 -10.8270000  -1.3330000   1.4750000  -9.3880000
  -1.2740000   1.9090000  -8.3890000  -1.6240000   0.4250000  -9.3580000
  -2.3580000   2.3100000 -10.2210000  -1.9930000   3.1600000 -11.0560000
  -3.5460000   2.0290000  -9.9830000   1.0140000  -0.0990000  -7.0040000
   1.1560000   0.8040000  -6.5730000   0.6400000  -1.2650000  -6.2720000
   1.2540000  -2.1050000  -6.5960000  -0.8630000  -1.6080000  -6.6160000
  -1.6860000  -0.7290000  -6.7650000   0.9060000  -1.0640000  -4.7640000
   0.5760000  -0.0480000  -4.5480000   0.1540000  -1.7260000  -4.3340000
   2.3340000  -1.2830000  -4.1800000   3.1000000  -0.8300000  -4.8090000
   2.4030000  -0.7230000  -2.7430000   1.7990000  -1.2250000  -1.9880000
   2.2640000   0.3570000  -2.7970000   3.3970000  -0.7790000  -2.2990000
   2.6350000  -2.8080000  -4.0860000   2.3600000  -3.2450000  -5.0460000
   2.0910000  -3.2960000  -3.2780000   3.7040000  -2.8940000  -3.8910000
  -1.2840000  -2.9380000  -6.6640000  -0.6390000  -3.7120000  -6.5920000
  -2.7130000  -3.4770000  -6.6270000  -3.2490000  -2.6530000  -7.0980000
  -3.2680000  -3.7950000  -5.2660000  -2.4920000  -4.1540000  -4.3930000
  -2.9540000  -4.6790000  -7.4890000  -4.0120000  -4.9370000  -7.5370000
  -2.0290000  -5.7050000  -7.0890000  -1.1400000  -5.3500000  -7.1540000
  -2.4510000  -4.3870000  -8.9360000  -1.4270000  -4.0160000  -8.9430000
  -3.1700000  -3.6680000  -9.3300000  -2.5010000  -5.3250000  -9.4890000
  -4.5710000  -3.7820000  -4.9730000  -5.3270000  -3.5940000  -5.6150000
  -5.0990000  -4.2650000  -3.6960000  -4.6760000  -3.7090000  -2.8600000
  -4.7350000  -5.7730000  -3.4420000  -4.5960000  -6.1800000  -2.3150000
  -6.5630000  -4.0030000  -3.7010000  -6.8410000  -3.0260000  -4.0970000
  -7.0370000  -4.7460000  -4.3420000  -7.1280000  -4.0750000  -2.2710000
  -6.7170000  -3.2410000  -1.4230000  -8.2060000  -4.6370000  -2.1230000
  -4.5230000  -6.6250000  -4.4660000  -4.4700000  -6.2690000  -5.4100000
  -4.0440000  -7.9810000  -4.3130000  -4.7310000  -8.4650000  -3.6190000
  -2.6180000  -8.0350000  -3.6650000  -2.2480000  -8.9650000  -2.9810000
  -3.9170000  -8.6330000  -5.7040000  -4.8260000  -8.3940000  -6.2550000
  -3.0950000  -8.1730000  -6.2530000  -3.6550000 -10.1820000  -5.6410000
  -4.6230000 -10.6580000  -5.4870000  -3.0820000 -10.3720000  -4.7340000
  -2.9160000 -10.6630000  -6.9010000  -1.6570000 -10.7780000  -6.9270000
  -3.5420000 -10.8200000  -7.9460000  -1.8020000  -6.9800000  -3.8770000
  -2.1350000  -6.2540000  -4.4950000  -0.4580000  -6.8160000  -3.3460000
   0.0840000  -7.7480000  -3.1850000  -0.5110000  -6.0920000  -1.9790000
   0.3720000  -6.3820000  -1.1640000   0.3260000  -6.0590000  -4.3970000
  -0.1800000  -5.1310000  -4.6640000   1.3080000  -5.7500000  -4.0390000
   0.6000000  -6.8520000  -5.6840000   1.3580000  -7.5650000  -5.3600000
  -0.2840000  -7.3530000  -6.0790000   1.2970000  -6.0270000  -6.8160000
   0.9870000  -4.8180000  -7.0600000   2.3080000  -6.5390000  -7.3140000
  -1.4630000  -5.1730000  -1.7180000  -2.0150000  -4.7660000  -2.4590000
  -1.6870000  -4.6550000  -0.3380000  -0.6900000  -4.3340000  -0.0380000
  -2.1480000  -5.6320000   0.7620000  -1.7130000  -5.5550000   1.9500000
  -2.6110000  -3.3810000  -0.3760000  -3.5750000  -3.6740000  -0.7920000
  -2.0530000  -2.2850000  -1.3450000  -1.0830000  -1.9240000  -1.0060000
  -1.8660000  -2.8290000  -2.2710000  -2.6360000  -2.8780000   1.0210000
  -2.7050000  -1.7930000   0.9550000  -3.4110000  -3.3060000   1.6580000
  -1.6630000  -3.0870000   1.4660000  -3.0140000  -1.1530000  -1.7560000
  -2.5720000  -0.7020000  -2.6440000  -3.1550000  -0.5410000  -0.8650000
  -3.9440000  -1.6460000  -2.0380000  -2.9670000  -6.5840000   0.3860000
  -3.4710000  -6.6050000  -0.4880000  -3.3240000  -7.7970000   1.1930000
  -3.7980000  -7.4950000   2.1260000  -2.1060000  -8.6700000   1.5760000
  -2.1510000  -9.3040000   2.6320000  -4.2640000  -8.7050000   0.3280000
  -3.8040000  -8.9210000  -0.6360000  -4.3230000  -9.6180000   0.9200000
  -5.7040000  -8.1970000   0.2160000  -6.1120000  -8.7520000  -0.6280000
  -5.6650000  -7.1560000  -0.1060000  -6.6300000  -8.3920000   1.3810000
  -6.4330000  -9.3840000   2.1960000  -7.5280000  -7.5170000   1.4810000
  -1.0240000  -8.6990000   0.7740000  -1.1210000  -8.1180000  -0.0460000
   0.2350000  -9.3900000   1.0670000  -0.1610000 -10.3370000   1.4340000
   1.0050000  -8.6230000   2.1280000   1.4130000  -9.1350000   3.1530000
   1.0400000  -9.6290000  -0.2330000   2.0540000  -9.9870000  -0.0590000
   1.1390000  -8.7190000  -0.8260000   0.4120000 -10.4920000  -1.3400000
  -0.5120000 -10.0100000  -1.6610000   1.1690000 -10.6230000  -2.1140000
  -0.0240000 -11.8450000  -0.7970000  -1.2150000 -11.9850000  -0.3050000
   0.7190000 -12.8490000  -0.9880000   1.1900000  -7.3800000   1.9220000
   0.9100000  -7.0130000   1.0230000   1.8050000  -6.3880000   2.9020000
   2.8280000  -6.7110000   3.0940000   1.1310000  -6.3150000   4.2880000
   1.6650000  -5.8270000   5.2420000   1.8450000  -4.9640000   2.1900000
   1.0290000  -4.9050000   1.4700000   3.2110000  -4.9690000   1.4770000
   3.1870000  -5.9540000   1.0120000   4.0740000  -4.8440000   2.1320000
   1.8680000  -3.7640000   3.0610000   2.8120000  -3.7220000   3.6040000
   1.6490000  -2.8960000   2.4380000   0.9410000  -3.7830000   3.6340000
   3.4530000  -3.9200000   0.4460000   4.4390000  -4.0670000   0.0050000
   3.3430000  -2.9090000   0.8380000   2.7970000  -4.1840000  -0.3830000
  -0.1720000  -6.8040000   4.4200000  -0.6220000  -7.1300000   3.5770000
  -1.0150000  -6.9180000   5.6450000  -0.5300000  -6.3590000   6.4460000
  -1.0330000  -8.3530000   6.2590000  -1.8590000  -8.6150000   7.1160000
  -2.3420000  -6.2750000   5.4940000  -3.0240000  -6.4870000   6.3180000
  -2.7180000  -6.7900000   4.6100000  -2.3070000  -4.7970000   5.3370000
  -1.4090000  -4.4730000   4.8110000  -3.5100000  -4.1770000   4.6970000
  -4.3050000  -4.1330000   5.4420000  -3.3910000  -3.1240000   4.4440000
  -3.9010000  -4.8120000   3.9010000  -2.1750000  -4.1220000   6.7520000
  -2.9910000  -4.4380000   7.4020000  -2.3290000  -3.0570000   6.5760000
  -1.2600000  -4.3910000   7.2810000  -0.0860000  -9.2410000   5.8670000
   0.5910000  -8.8920000   5.2040000   0.1880000 -10.5940000   6.4550000
  -0.6160000 -10.8940000   7.1270000   1.3760000 -10.6520000   7.4140000
   1.3440000 -11.3260000   8.4950000   0.4340000 -11.6080000   5.2730000
   0.8360000 -12.5180000   5.7180000   1.2490000 -11.2200000   4.6610000
  -0.8950000 -11.9500000   4.5440000  -1.3090000 -11.0290000   4.1330000
  -1.6010000 -12.4620000   5.1980000  -0.6290000 -12.8750000   3.3590000
  -0.0560000 -12.2720000   2.6540000  -0.0900000 -13.7190000   3.7890000
  -1.8980000 -13.3310000   2.6700000  -2.5480000 -13.8380000   3.3830000
  -1.8540000 -14.0950000   1.8940000  -2.6520000 -12.1980000   2.0500000
  -2.3900000 -12.1550000   1.0760000  -2.4340000 -11.3770000   2.5960000
  -3.6320000 -12.4430000   2.0550000   2.3830000  -9.9510000   7.0750000
   5.5370000  -1.3010000   6.0920000   5.8900000  -1.8250000   4.7800000
   5.6540000  -1.0480000   3.5910000   6.8070000  -0.6540000   2.9880000
   6.7410000   0.1090000   1.8030000   5.5470000   0.4680000   1.2110000
   5.5550000   1.2320000  -0.0130000   4.6630000   1.0270000  -0.8470000
   6.6820000   2.1720000  -0.3110000   6.8960000   3.3700000   0.3470000
   7.9870000   4.2170000   0.0100000   8.8810000   3.8890000  -0.9650000
   8.7170000   2.6950000  -1.6260000   7.6090000   1.8750000  -1.3080000
   4.3670000   0.0520000   1.8220000   3.1750000   0.3960000   1.2760000
   4.4180000  -0.7170000   3.0170000   5.9701720  -1.9440088   6.8723215
   5.9319753  -0.2797798   6.1973743   4.4422004  -1.2833876   6.1973743
   7.7812570  -0.9272238   3.4194765   7.6808501   0.4313566   1.3310170
   6.2067949   3.6739186   1.1486419   8.1133586   5.1655504   0.5524810
   9.7130936   4.5629906  -1.2167081   9.4393217   2.3806083  -2.3937299
   7.4709358   0.9470745  -1.8823627   2.3316107   0.1040845   1.7044622
   3.4849643  -1.0533394   3.4927313
