
  474  0.0000000e+00
 -12.5400000  -2.6500000  10.9400000 -13.2300000  -3.1400000  10.3800000
 -12.2100000  -1.8600000  10.4000000 -12.9500000  -2.2700000  11.7800000
 -11.3800000  -3.5500000  11.2000000 -10.5900000  -3.0800000  11.7700000
 -11.6400000  -4.3900000  11.8500000 -10.8400000  -4.1600000   9.9400000
 -10.1300000  -3.3800000   9.2700000 -10.8900000  -5.4900000   9.7000000
 -11.3700000  -6.0400000  10.4100000 -10.1100000  -6.1800000   8.6700000
  -9.0600000  -6.3300000   8.9200000 -10.2300000  -5.4600000   7.3100000
  -9.2200000  -5.0900000   6.6700000 -10.5400000  -7.6500000   8.5300000
  -9.6800000  -8.0900000   8.0300000 -11.4900000  -7.7200000   8.0000000
 -10.7600000  -8.1400000   9.4900000 -11.3900000  -5.2900000   6.7500000
 -12.1800000  -5.4800000   7.3500000 -11.6100000  -4.7800000   5.3900000
 -11.0900000  -5.4800000   4.7300000 -10.9600000  -3.4100000   5.1600000
 -10.2700000  -3.2600000   4.1100000 -13.1100000  -4.8300000   4.9800000
 -13.4000000  -5.8700000   4.8600000 -13.7300000  -4.3600000   5.7500000
 -13.0400000  -4.2900000   4.0400000 -11.2800000  -2.4900000   6.0600000
 -11.9100000  -2.6900000   6.8200000 -10.7800000  -1.1200000   6.1900000
 -11.0300000  -0.6200000   5.2500000  -9.2600000  -1.2400000   6.2100000
  -8.5700000  -0.5300000   5.5400000 -11.4500000  -0.2200000   7.2500000
 -11.1800000   0.8400000   7.2300000 -11.0600000  -0.5700000   8.2000000
 -12.5300000  -0.2800000   7.2800000  -8.7900000  -2.1600000   7.1100000
  -9.4400000  -2.7300000   7.6400000  -7.3500000  -2.3900000   7.3300000
  -7.0600000  -1.3500000   7.4800000  -6.6000000  -2.8200000   6.0600000
  -5.7300000  -2.0800000   5.6300000  -7.1300000  -3.2600000   8.5900000
  -7.7100000  -2.8300000   9.4000000  -6.0800000  -3.2700000   8.8800000
  -7.4400000  -4.2900000   8.4200000  -7.1300000  -3.8200000   5.2800000
  -7.9300000  -4.3200000   5.6200000  -6.5200000  -4.0500000   4.0400000
  -5.5000000  -4.2700000   4.3300000  -6.5300000  -3.0100000   2.9300000
  -5.5600000  -2.8000000   2.2600000  -7.0300000  -5.4400000   3.4400000
  -8.0800000  -5.2700000   3.1700000  -6.5400000  -5.6000000   2.4700000
  -6.9200000  -6.6200000   4.3800000  -7.5200000  -6.4200000   5.2700000
  -7.3400000  -7.5200000   3.9300000  -5.5000000  -6.9000000   4.8200000
  -4.9100000  -6.8300000   3.9100000  -5.1700000  -6.1300000   5.5100000
  -5.2800000  -8.2100000   5.4000000  -5.1900000  -8.1400000   6.4000000
  -5.0800000  -9.3700000   4.8300000  -5.0900000  -9.6700000   3.5600000
  -5.0600000 -10.6500000   3.3500000  -5.0200000  -8.9000000   2.9100000
  -4.8400000 -10.3700000   5.5200000  -4.6800000 -10.1800000   6.4900000
  -4.7000000 -11.2700000   5.0800000  -7.6700000  -2.3400000   2.8600000
  -8.3700000  -2.6200000   3.5300000  -8.0000000  -1.2700000   1.9900000
  -7.7700000  -1.5800000   0.9700000  -7.2400000  -0.0100000   2.2500000
  -6.7800000   0.6200000   1.2800000  -9.5000000  -1.1400000   2.0100000
  -9.7500000  -0.2000000   1.5100000 -10.0600000  -1.9400000   1.5200000
  -9.8500000  -1.0900000   3.0400000  -6.9900000   0.4100000   3.4900000
  -7.3800000  -0.0700000   4.2900000  -6.3200000   1.6900000   3.8200000
  -6.6600000   2.4300000   3.0900000  -4.8100000   1.3800000   3.6200000
  -4.1800000   2.1700000   2.9000000  -6.7700000   2.0400000   5.2900000
  -6.6800000   1.1600000   5.9200000  -6.0300000   2.7500000   5.6700000
  -8.1600000   2.6500000   5.4100000  -8.9200000   1.9200000   5.1500000
  -8.4800000   3.0700000   6.8600000  -7.5900000   3.5500000   7.2600000
  -9.3600000   3.7200000   6.8900000  -8.5900000   2.1500000   7.4300000
  -8.2200000   3.9000000   4.5100000  -9.2000000   4.3600000   4.6300000
  -8.2300000   3.6500000   3.4500000  -7.5700000   4.6800000   4.9200000
  -4.2800000   0.2400000   4.0300000  -4.8000000  -0.4600000   4.5300000
  -2.8700000   0.0500000   3.7800000  -2.3800000   0.9500000   4.1500000
  -2.6300000  -0.0800000   2.2100000  -1.5800000   0.3400000   1.6600000
  -2.3600000  -1.1100000   4.6500000  -2.8000000  -0.9600000   5.6400000
  -1.2900000  -0.9500000   4.7700000  -2.6600000  -2.0700000   4.2200000
  -3.5200000  -0.6900000   1.4500000  -4.2900000  -1.1500000   1.9200000
  -3.3900000  -0.7600000  -0.0100000  -2.3800000  -1.0500000  -0.3000000
  -3.4900000   0.6400000  -0.6900000  -2.6400000   0.9400000  -1.6000000
  -4.3000000  -1.7600000  -0.6800000  -5.3200000  -1.6400000  -0.3200000
  -4.4200000  -1.7500000  -2.2600000  -3.4100000  -1.6200000  -2.6600000
  -5.1300000  -0.9700000  -2.5400000  -4.7600000  -2.7200000  -2.6100000
  -3.6700000  -3.1300000  -0.2800000  -2.7200000  -3.2000000  -0.8200000
  -4.3100000  -3.9800000  -0.4800000  -3.5600000  -3.0900000   0.8100000
  -4.3600000   1.5300000  -0.2600000  -4.9700000   1.2400000   0.5000000
  -4.6200000   2.8200000  -0.8800000  -4.5900000   2.7200000  -1.9600000
  -3.4800000   3.7500000  -0.6600000  -2.9200000   4.3200000  -1.6000000
  -6.0100000   3.3200000  -0.6000000  -6.2500000   3.1000000   0.4400000
  -6.2700000   4.7700000  -0.8400000  -7.2700000   4.9300000  -0.4300000
  -6.1900000   5.0900000  -1.8800000  -5.4800000   5.3900000  -0.4200000
  -6.9900000   2.5600000  -1.4500000  -7.9700000   2.5600000  -0.9800000
  -6.9800000   2.7400000  -2.5300000  -6.7100000   1.5200000  -1.3000000
  -2.8600000   3.6400000   0.4700000  -3.1800000   3.0500000   1.2200000
  -1.5900000   4.3400000   0.7600000  -1.6800000   5.3900000   0.4900000
  -0.3900000   3.8600000   0.0500000   0.3900000   4.7200000  -0.4100000
  -1.4600000   4.1100000   2.2500000  -1.4400000   3.0500000   2.5000000
  -0.4200000   4.4000000   2.4300000  -2.3800000   4.9500000   3.1300000
  -3.4200000   4.9800000   2.8200000  -2.4200000   4.4600000   4.5500000
  -3.2200000   5.0800000   4.9500000  -1.4900000   4.6800000   5.0800000
  -2.7800000   3.4300000   4.5900000  -1.9000000   6.4500000   3.1300000
  -0.8400000   6.4300000   3.3800000  -2.2400000   7.0700000   3.9600000
  -2.1500000   6.9800000   2.2200000  -0.2000000   2.5400000  -0.1100000
  -0.9000000   1.8600000   0.1300000   0.9400000   2.1100000  -0.8100000
   1.8600000   2.6100000  -0.5000000   0.7800000   2.5000000  -2.3000000
   1.7300000   2.9900000  -2.9200000   1.1300000   0.6000000  -0.5200000
   0.3400000   0.1100000  -1.0900000   1.0500000   0.3800000   0.5400000
   2.1100000   0.1900000  -0.7800000  -0.4100000   2.3200000  -2.8600000
  -1.1800000   1.9600000  -2.3000000  -0.8000000   2.7000000  -4.1700000
  -0.1200000   2.1000000  -4.7800000  -0.5700000   4.2100000  -4.5100000
  -0.2900000   4.5900000  -5.6400000  -2.2900000   2.3200000  -4.4900000
  -2.4400000   1.2400000  -4.4700000  -3.0100000   2.8900000  -3.8900000
  -2.4400000   2.6100000  -5.5300000  -0.7000000   5.0900000  -3.4800000
  -1.2000000   4.8200000  -2.6400000  -0.4300000   6.4800000  -3.6500000
  -0.8900000   6.7800000  -4.5900000   0.9800000   6.8700000  -3.7100000
   1.3700000   7.5700000  -4.6100000  -1.2600000   7.3800000  -2.7500000
  -1.1000000   8.4500000  -2.8900000  -2.3000000   7.2800000  -3.0600000
  -1.1100000   7.1500000  -1.7000000   1.8800000   6.3600000  -2.7800000
   1.5200000   5.6200000  -2.2000000   3.2600000   6.5100000  -2.9200000
   3.5500000   7.5600000  -2.7900000   3.8500000   5.9600000  -4.2800000
   4.7800000   6.4800000  -4.8500000   3.8400000   5.7800000  -1.7000000
   3.5000000   6.3100000  -0.8200000   4.9200000   5.8800000  -1.7600000
   3.5500000   4.7400000  -1.8500000   3.3200000   4.8400000  -4.7900000
   2.7900000   4.2800000  -4.1400000   3.7600000   4.1300000  -6.0400000
   4.8400000   4.0100000  -5.9900000   3.5400000   5.1600000  -7.1700000
   4.5100000   5.4800000  -7.8700000   2.9700000   2.7500000  -6.1900000
   1.9300000   3.0200000  -6.3500000   3.0800000   2.2200000  -5.2500000
   3.3700000   1.7700000  -7.2800000   3.0700000   2.2300000  -8.2200000
   4.9000000   1.5900000  -7.3000000   5.2400000   1.1200000  -6.3700000
   5.3200000   2.5900000  -7.4500000   5.1100000   0.8600000  -8.0800000
   2.6800000   0.3700000  -7.3400000   2.9400000  -0.2100000  -6.4500000
   1.5900000   0.4900000  -7.3500000   2.9700000  -0.0200000  -8.3100000
   2.3300000   5.7800000  -7.1400000   1.6600000   5.2600000  -6.5900000
   1.8000000   6.7200000  -8.0600000   1.8100000   6.3000000  -9.0700000
   2.5400000   8.0800000  -8.0600000   2.8200000   8.6900000  -9.1300000
   0.3000000   6.8700000  -7.8600000  -0.0700000   7.6100000  -8.5700000
   0.0900000   7.2900000  -6.8700000  -0.1000000   5.8600000  -7.9300000
   2.8200000   8.5800000  -6.8200000   2.4500000   8.1100000  -6.0100000
   3.6800000   9.7400000  -6.6500000   3.4100000  10.4700000  -7.4200000
   5.1900000   9.4300000  -6.8500000   6.0700000  10.3200000  -6.9100000
   3.2200000  10.3300000  -5.3400000   3.4800000  11.3800000  -5.2500000
   3.8000000   9.7700000  -4.6100000   2.1500000  10.2500000  -5.1700000
   5.4300000   8.2200000  -7.2900000   4.8400000   7.4800000  -6.9400000
   6.7000000   7.7400000  -7.8400000   7.1400000   8.5200000  -8.4500000
   6.3600000   6.8900000  -8.4200000   7.8300000   7.4500000  -6.8400000
   8.9900000   7.2600000  -7.1300000   7.3900000   7.5100000  -5.6100000
   6.3900000   7.4200000  -5.5300000   8.2500000   7.3700000  -4.4100000
   9.0700000   8.0800000  -4.4800000   8.8300000   5.9900000  -4.2300000
   9.9300000   5.8300000  -3.6600000   7.5500000   7.8300000  -3.1300000
   8.1500000   7.5600000  -2.2600000   6.5700000   7.3500000  -3.0500000
   7.2500000   9.3600000  -2.9800000   6.7900000   9.7100000  -3.9000000
   6.2900000   9.5900000  -1.7700000   6.9500000   9.4300000  -0.9200000
   5.9900000  10.6300000  -1.9300000   5.3700000   9.0100000  -1.8600000
   8.5000000  10.1100000  -2.6900000   9.0600000  10.2900000  -3.6100000
   8.2600000  11.1200000  -2.3600000   9.1200000   9.6500000  -1.9300000
   8.1300000   5.0200000  -4.7400000   7.2400000   5.2100000  -5.1700000
   8.5000000   3.5700000  -4.6200000   9.5400000   3.5200000  -4.3000000
   8.5200000   2.8600000  -5.9500000   8.0400000   3.3900000  -6.9200000
   7.7000000   2.9300000  -3.4800000   8.1600000   1.9500000  -3.3500000
   6.2100000   2.7300000  -3.8900000   6.2100000   2.1100000  -4.7900000
   5.7700000   3.6800000  -4.1600000   7.7700000   3.8100000  -2.2300000
   7.5200000   3.1400000  -1.4000000   7.0800000   4.6500000  -2.3100000
   8.7700000   4.2500000  -2.1500000   5.3400000   2.1800000  -2.7300000
   5.0600000   3.0100000  -2.0800000   5.9100000   1.4300000  -2.1900000
   4.4400000   1.7800000  -3.2000000   9.0800000   1.6700000  -6.0900000
   9.6900000   1.3500000  -5.3500000   8.8300000   0.8100000  -7.2600000
   8.5500000   1.3200000  -8.1800000   7.6800000  -0.2100000  -7.0100000
   7.3500000  -0.4900000  -5.8700000  10.0800000  -0.0100000  -7.7000000
   9.7100000  -0.5200000  -8.5800000  10.4900000  -1.0400000  -6.7900000
  10.8100000  -0.6400000  -5.9800000  11.2400000   0.8800000  -8.2400000
  11.3700000   1.7300000  -7.5700000  12.1900000   0.3700000  -8.3800000
  10.8300000   1.4000000  -9.1100000   7.0600000  -0.8500000  -8.0500000
   7.5100000  -0.7400000  -8.9400000   6.0000000  -1.9800000  -7.8600000
   5.1200000  -1.4100000  -7.5800000   6.2900000  -3.0800000  -6.8700000
   5.3700000  -3.4700000  -6.1400000   5.7100000  -2.4900000  -9.2800000
   4.8700000  -3.1700000  -9.2000000   6.5500000  -3.0500000  -9.7100000
   5.2700000  -1.6900000  -9.8800000   7.5700000  -3.5500000  -6.8800000
   8.1600000  -3.2100000  -7.6300000   8.0800000  -4.6100000  -6.0800000
   7.3800000  -5.4300000  -6.2300000   8.2300000  -4.2700000  -4.5700000
   8.3000000  -5.1500000  -3.7600000   9.4700000  -5.0600000  -6.6000000
  10.1000000  -5.5000000  -5.8300000  10.0500000  -4.2000000  -6.9600000
   9.3300000  -6.0200000  -7.8400000   9.9500000  -5.7800000  -8.7000000
   8.3300000  -5.8100000  -8.1900000   9.4800000  -7.5100000  -7.6300000
   9.7600000  -8.3200000  -8.5700000   9.2600000  -7.9800000  -6.5000000
   8.2300000  -2.9800000  -4.1400000   8.2000000  -2.2500000  -4.8400000
   8.0100000  -2.5100000  -2.7500000   8.6200000  -3.1500000  -2.1100000
   6.5700000  -2.6200000  -2.3700000   6.2500000  -3.0700000  -1.2800000
   8.4900000  -1.1000000  -2.4400000   7.9500000  -0.5100000  -3.1800000
   8.2200000  -0.7400000  -1.4400000  10.0400000  -0.9100000  -2.6200000
  10.5300000  -1.4900000  -1.8300000  10.2700000  -1.3700000  -3.5800000
  10.4100000   0.5300000  -2.6100000  10.6400000   1.1500000  -3.6900000
  10.4300000   1.1700000  -1.5400000   5.6400000  -2.2300000  -3.3100000
   6.0800000  -1.8400000  -4.1300000   4.2100000  -1.9700000  -2.9600000
   4.0500000  -1.3800000  -2.0600000   3.5600000  -3.3300000  -2.7500000
   2.8600000  -3.4500000  -1.7300000   3.4200000  -1.3200000  -4.0600000
   3.3500000  -1.8500000  -5.0100000   2.4700000  -1.0600000  -3.6100000
   3.8500000  -0.3400000  -4.2800000   3.6900000  -4.1900000  -3.7000000
   4.1400000  -3.7300000  -4.4800000   3.3100000  -5.5700000  -3.7900000
   2.3000000  -5.7100000  -3.4200000   4.1600000  -6.6100000  -2.9800000
   3.7800000  -7.7500000  -2.9800000   3.4100000  -5.9200000  -5.3700000
   4.4500000  -5.8500000  -5.6900000   3.1900000  -6.9800000  -5.5300000
   2.5100000  -5.0500000  -6.3100000   2.9200000  -4.0400000  -6.3800000
   2.3500000  -5.5800000  -7.6600000   3.2900000  -5.4900000  -8.2100000
   1.9700000  -6.6000000  -7.7100000   1.6200000  -4.9800000  -8.2100000
   1.0900000  -5.0200000  -5.7800000   1.1300000  -4.3900000  -4.8900000
   0.2900000  -4.5600000  -6.3800000   0.7700000  -6.0300000  -5.5200000
   5.1800000  -6.1900000  -2.1800000   5.5600000  -5.3000000  -2.4400000
   5.6600000  -6.8900000  -1.0500000   5.4700000  -7.9600000  -1.1400000
   4.8500000  -6.2600000   0.1600000   4.2000000  -6.9600000   0.9700000
   7.2000000  -6.5900000  -0.8200000   7.6600000  -7.3200000  -0.1600000
   7.4200000  -5.5800000  -0.4800000   7.7300000  -6.8100000  -1.7500000
   4.7900000  -4.9100000   0.3000000   5.2400000  -4.4000000  -0.4400000
   4.4000000  -4.3200000   1.5200000   5.1300000  -4.5800000   2.2900000
   2.9300000  -4.7300000   1.7900000   2.6900000  -5.0400000   2.9700000
   4.4200000  -2.8100000   1.2800000   5.3900000  -2.5600000   0.8500000
   4.3400000  -2.2100000   2.1900000   3.6400000  -2.5200000   0.5800000
   2.0600000  -4.6900000   0.8800000   2.3600000  -4.3800000  -0.0300000
   0.6500000  -4.8800000   1.1700000   0.3900000  -4.3100000   2.0600000
   0.2800000  -6.3300000   1.6000000  -0.7400000  -6.6000000   2.2100000
  -0.3400000  -4.3300000   0.1300000  -1.3700000  -4.4300000   0.4600000
  -0.2000000  -5.2700000  -1.1600000   0.8200000  -5.3200000  -1.5400000
  -0.5100000  -6.2800000  -0.9000000  -0.1400000  -2.8400000  -0.1000000
   0.8800000  -2.6800000  -0.4300000  -0.4400000  -2.3600000   0.8300000
  -0.7000000  -2.3900000  -0.9200000  -1.0800000  -4.8700000  -2.3800000
  -1.0800000  -5.7400000  -3.0300000  -2.1500000  -4.7100000  -2.2400000
  -0.6100000  -4.0500000  -2.9400000   1.1300000  -7.3100000   1.2300000
   1.8100000  -7.1400000   0.5000000   1.2500000  -8.6200000   1.8300000
   0.2600000  -9.0900000   1.8900000   1.6500000  -8.5900000   3.3100000
   1.6500000  -9.6600000   3.9100000   2.0900000  -9.6200000   0.9500000
   3.1300000  -9.3400000   0.8100000   1.7000000  -9.5800000  -0.0700000
   2.0100000 -10.6100000   1.3800000   1.9600000  -7.4900000   3.9900000
   1.8000000  -6.6300000   3.4700000   2.5400000  -7.4900000   5.3800000
   2.6100000  -8.5000000   5.7800000   1.6500000  -6.6700000   6.3600000
   1.4000000  -5.4000000   6.2500000   4.0300000  -6.8600000   5.3400000
   4.5400000  -6.7300000   6.2900000   3.9200000  -5.8600000   4.9300000
   4.6400000  -7.4100000   4.6200000   1.0700000  -7.2700000   7.2700000
  -3.7400000   1.8600000   6.4620000  -3.0980000   0.5410000   6.1290000
  -3.6070000  -0.6170000   6.9840000  -2.4900000  -1.5100000   7.4620000
  -2.6190000  -2.9620000   6.8040000  -4.0550000  -3.3450000   6.3410000
  -4.0290000  -4.4270000   5.2130000  -1.9350000  -2.9730000   5.5970000
  -0.4730000  -3.0640000   5.6000000   0.1100000  -3.9860000   6.2470000
   0.2340000  -2.1330000   4.7070000  -0.3270000  -0.8270000   4.5140000
   0.2910000   0.1490000   3.5250000   0.3760000  -0.1150000   2.1740000
   0.9610000   0.8300000   1.2630000   1.4550000   2.0730000   1.6980000
   1.9750000   3.0430000   0.8630000   2.9870000   2.6580000  -0.1010000
   1.3410000   2.3220000   3.0630000   0.7640000   1.3990000   3.9470000
  -3.7960116   1.9750768   7.5545292  -3.1391614   2.6777918   6.0374892
  -4.7542921   1.8916554   6.0374892  -3.3030872   0.3106397   5.0731244
  -2.0218484   0.6444934   6.3319454  -4.1309406  -0.2064189   7.8597337
  -4.2801637  -1.2244312   6.3612016  -1.5242773  -1.0670920   7.1770223
  -2.5525744  -1.6063875   8.5559808  -2.2565633  -3.6414236   7.5895083
  -4.6135433  -3.7408670   7.2019987  -4.5382086  -2.4421423   5.9393069
  -4.0049248  -5.4288997   5.6664505  -4.9297759  -4.3283046   4.5894120
  -3.1340042  -4.2851530   4.5894120   1.1652625  -2.4295606   4.2022208
  -1.2157660  -0.5275800   5.0888414  -0.0119053  -1.0683564   1.7858748
   1.0242433   0.5739472   0.1950874   3.8875121   2.3154139   0.4297662
   2.6013263   1.8437796  -0.7321109   3.2400382   3.5226795  -0.7321109
   1.7165751   3.2758541   3.4618807   0.6794974   1.6658307   5.0107954
