
  371  0.0000000e+00
   5.5730000  -3.5930000  -8.9970000   6.1430000  -4.3610000  -8.6720000
   4.9570000  -3.8870000  -9.7410000   6.2610000  -2.9470000  -9.3580000
   4.7520000  -3.0900000  -7.8900000   3.9560000  -3.8230000  -7.7670000
   4.0290000  -1.7870000  -8.2930000   4.6660000  -0.9790000  -8.9500000
   5.5370000  -2.8730000  -6.5640000   4.7950000  -2.4880000  -5.8630000
   6.3090000  -2.1110000  -6.6720000   6.1710000  -4.1540000  -5.9840000
   6.8610000  -3.9700000  -5.1610000   6.8230000  -4.6420000  -6.7080000
   5.1590000  -5.0740000  -5.4750000   4.5160000  -5.4170000  -6.2860000
   5.6350000  -5.9830000  -5.1070000   4.2830000  -4.5920000  -4.3940000
   3.3060000  -4.5470000  -4.6450000   4.5260000  -4.6490000  -3.1590000
   5.6740000  -4.8030000  -2.6720000   5.8380000  -4.6900000  -1.6820000
   6.3860000  -5.1570000  -3.2950000   3.5950000  -4.3630000  -2.2480000
   3.8470000  -4.3110000  -1.2720000   2.6280000  -4.5020000  -2.5050000
   2.7790000  -1.6350000  -7.8340000   2.3860000  -2.3690000  -7.2610000
   1.9780000  -0.4350000  -7.9220000   0.9140000  -0.6320000  -8.0590000
   2.3730000   0.1810000  -8.7300000   2.2010000   0.4680000  -6.7130000
   2.9120000   0.2300000  -5.7230000   1.5750000   1.6000000  -6.8250000
   1.2760000   1.8560000  -7.7550000   1.7030000   2.6960000  -5.8160000
   2.7190000   2.7750000  -5.4310000   0.8080000   2.4060000  -4.5330000
  -0.4240000   2.4520000  -4.6120000   1.5420000   4.0670000  -6.4250000
   0.6420000   3.9400000  -7.0260000   2.3500000   4.2400000  -7.1360000
   1.3950000   5.2580000  -5.4450000   0.6610000   4.9240000  -4.7130000
   2.3340000   5.5040000  -4.9480000   0.7190000   6.4280000  -6.2330000
   1.1840000   7.6170000  -6.0770000  -0.3230000   6.2350000  -6.8820000
   1.5100000   2.0560000  -3.4460000   2.5190000   2.0810000  -3.4860000
   0.9300000   2.2100000  -2.0840000  -0.1050000   1.8710000  -2.0420000
   1.6210000   1.7140000  -1.4020000   0.8830000   3.5900000  -1.5360000
   1.5290000   4.5000000  -2.0980000   0.3000000   3.7990000  -0.3490000
  -0.1160000   2.9780000   0.0650000  -0.1420000   5.0760000   0.2660000
  -0.3280000   5.9510000  -0.3570000  -1.1170000   4.8450000   0.6950000
   0.6880000   5.5320000   1.4410000   1.5340000   4.7500000   1.8690000
   0.5510000   6.8260000   1.7470000  -0.1240000   7.3610000   1.2180000
   1.2430000   7.4160000   2.9380000   2.2300000   6.9800000   3.0950000
   0.4530000   6.9970000   4.2300000  -0.3860000   7.7140000   4.7630000
   1.4060000   8.9150000   2.8040000   1.6120000   9.3460000   3.7830000
   0.4470000   9.3140000   2.4730000   2.4690000   9.3960000   1.7970000
   2.3110000   8.9440000   0.8180000   2.4670000  10.9540000   1.5190000
   2.6590000  11.5620000   2.4030000   3.2570000  11.1650000   0.7980000
   1.5130000  11.2270000   1.0670000   3.8410000   9.1020000   2.1360000
   3.9740000   9.5840000   3.1040000   4.4420000   9.5380000   1.3380000
   4.0040000   8.0240000   2.1370000   0.7890000   5.7990000   4.6860000
   1.5390000   5.3360000   4.1930000   0.4890000   5.4320000   6.0980000
   1.0560000   4.5540000   6.4080000   0.7790000   6.3380000   6.6310000
  -1.0090000   5.2070000   6.4420000  -1.2980000   5.1520000   7.6120000
  -1.9500000   5.1020000   5.4960000  -1.6760000   5.2620000   4.5370000
  -3.3900000   5.0590000   5.7850000  -3.6760000   6.0050000   6.2440000
  -3.9210000   3.8770000   6.6560000  -4.9360000   4.0260000   7.2770000
  -4.2070000   5.0700000   4.4750000  -5.2570000   5.2630000   4.6960000
  -4.1060000   4.0830000   4.0250000  -3.6760000   6.1600000   3.5440000
  -4.2460000   7.3070000   3.4190000  -2.6430000   5.8590000   2.8970000
  -3.1310000   2.7730000   6.6740000  -2.3060000   2.6570000   6.1030000
  -3.4370000   1.5210000   7.4130000  -2.4820000   1.0460000   7.6380000
  -3.6700000   1.8310000   8.4310000  -4.4270000   0.5420000   6.9020000
  -4.7250000   0.4380000   5.6810000  -4.8880000  -0.2690000   7.8070000
  -4.6540000  -0.0450000   8.7640000  -5.8390000  -1.2790000   7.5900000
  -6.6780000  -0.8160000   7.0720000  -6.2280000  -1.7340000   8.5010000
  -5.2950000  -2.3510000   6.6330000  -4.1050000  -2.7320000   6.5890000
  -6.2900000  -2.8080000   5.8620000  -7.2350000  -2.4670000   5.9640000
  -6.1170000  -3.6870000   4.7240000  -5.2870000  -4.3390000   4.9990000
  -5.6750000  -3.0390000   3.4210000  -6.2840000  -3.3130000   2.4020000
  -7.2990000  -4.7020000   4.6150000  -8.0750000  -4.1560000   4.0790000
  -7.0290000  -5.5370000   3.9680000  -7.8130000  -5.3060000   5.9190000
  -7.1920000  -6.4140000   6.4810000  -6.2710000  -6.8000000   6.0690000
  -8.9640000  -4.8340000   6.5370000  -9.4030000  -4.0040000   6.0050000
  -7.6420000  -7.0780000   7.6550000  -7.1080000  -7.9240000   8.0620000
  -9.4410000  -5.4140000   7.7240000 -10.2900000  -4.9730000   8.2260000
  -8.8100000  -6.5290000   8.2920000  -9.2630000  -7.1420000   9.4420000
 -10.1900000  -6.9400000   9.5840000  -4.6120000  -2.2540000   3.4490000
  -4.2570000  -2.0820000   4.3780000  -4.0920000  -1.4200000   2.3270000
  -4.8870000  -0.7320000   2.0420000  -3.8140000  -2.0270000   1.4650000
  -2.8090000  -0.6060000   2.6490000  -1.7530000  -1.1360000   2.9910000
  -2.8300000   0.6770000   2.4200000  -3.6870000   1.1070000   2.1030000
  -1.6490000   1.6170000   2.3900000  -1.9360000   2.6420000   2.1560000
  -0.9840000   1.2920000   1.5900000  -0.7560000   1.6350000   3.7090000
  -1.1940000   1.4960000   4.8480000   0.5300000   1.9450000   3.5240000
   0.8900000   2.1740000   2.6080000   1.5630000   1.9310000   4.5590000
   1.4120000   2.8040000   5.1950000   1.5500000   0.9420000   5.0170000
   2.8840000   2.0470000   3.9980000   3.0740000   1.8530000   2.8020000
   3.8030000   2.5920000   4.7080000   3.6660000   2.6320000   5.7080000
   4.9420000   3.2760000   4.2300000   5.5530000   3.5890000   5.0770000
   5.5280000   2.5820000   3.6270000   4.7340000   4.4700000   3.3050000
   4.1570000   5.4880000   3.6240000   5.2460000   4.3100000   2.0920000
   5.6490000   3.4200000   1.8330000   5.1940000   5.3600000   1.0360000
   4.1510000   5.6740000   1.0910000   5.4930000   4.7310000  -0.3020000
   6.2570000   3.7910000  -0.3760000   6.1240000   6.4760000   1.4330000
   5.9260000   6.9450000   2.3960000   7.1610000   6.1410000   1.4150000
   5.8740000   7.4560000   0.4420000   6.3780000   8.2560000   0.6080000
   5.0270000   5.3430000  -1.4150000   4.3320000   6.0700000  -1.3210000
   5.4130000   5.0890000  -2.7850000   6.3930000   5.5330000  -2.9620000
   4.7430000   5.7040000  -3.3860000   5.2650000   3.6680000  -3.3600000
   4.5150000   2.8380000  -2.8120000   5.9910000   3.4350000  -4.4430000
   6.7030000   4.1110000  -4.6800000   6.0820000   2.1510000  -5.1010000
   5.2040000   1.9370000  -5.7100000   6.3540000   1.0850000  -4.0100000
   7.2610000   1.2070000  -3.2040000   7.2070000   2.1310000  -6.1230000
   8.1380000   2.1070000  -5.5570000   7.1380000   1.2310000  -6.7350000
   7.0900000   3.2170000  -7.1850000   7.8940000   4.3070000  -7.4360000
   8.8510000   4.5570000  -7.0020000   6.0990000   3.2560000  -8.2360000
   7.4880000   4.9390000  -8.6070000   8.0880000   5.6340000  -9.0270000
   6.3940000   4.3100000  -9.1740000   4.9850000   2.4310000  -8.6190000
   4.7120000   1.6530000  -7.9210000   5.6680000   4.5640000 -10.3360000
   5.7850000   5.4620000 -10.9250000   4.3210000   2.6060000  -9.8890000
   3.6420000   1.8600000 -10.2740000   4.7140000   3.6650000 -10.7480000
   4.1720000   3.8500000 -11.6640000   5.4870000   0.0660000  -3.9250000
   4.6670000   0.1150000  -4.5120000   5.6180000  -1.0970000  -3.0560000
   4.8870000  -1.7910000  -3.4710000   6.6260000  -1.5120000  -3.0270000
   5.2060000  -0.8040000  -1.6210000   5.4400000  -1.6330000  -0.7760000
   4.6940000   0.3470000  -1.2440000   4.6320000   1.1470000  -1.8570000
   4.0990000   0.4910000   0.0590000   4.7780000   0.0940000   0.8140000
   3.9200000   1.5150000   0.3880000   2.7310000  -0.2320000   0.1320000
   2.0720000  -0.5720000  -0.8230000   2.2330000  -0.4180000   1.3090000
   2.7160000   0.0530000   2.0600000   0.9590000  -1.1270000   1.5450000
   0.7720000  -0.9330000   2.6010000   0.1200000  -0.7390000   0.9670000
   0.9780000  -2.6300000   1.4070000   1.9090000  -3.2130000   0.7940000
  -0.1240000  -3.2140000   1.8020000  -0.8250000  -2.6700000   2.2840000
  -0.3420000  -4.6400000   1.6640000   0.5590000  -5.1170000   1.2790000
  -1.6600000  -4.7870000   0.7850000  -2.6930000  -4.2130000   1.1270000
  -0.5160000  -5.1610000   3.1250000  -1.3600000  -4.6680000   3.6060000
   0.7540000  -4.9540000   4.0370000   1.1480000  -3.9520000   3.8690000
   1.6040000  -5.5330000   3.6760000  -0.9240000  -6.7470000   3.1320000
  -1.5980000  -7.0860000   2.3460000  -1.4060000  -7.1070000   4.0410000
  -0.0810000  -7.3360000   2.7690000   0.5920000  -5.3940000   5.4980000
   1.5170000  -5.1500000   6.0200000  -0.1560000  -4.8060000   6.0310000
   0.3780000  -6.4610000   5.5570000  -1.5060000  -5.5280000  -0.3120000
  -0.5730000  -5.8950000  -0.4290000  -2.6450000  -5.8210000  -1.2690000
  -3.4840000  -6.1100000  -0.6350000  -2.2740000  -6.6840000  -1.8220000
  -3.0050000  -4.6200000  -2.1520000  -2.6200000  -3.5050000  -1.8740000
  -3.7860000  -4.9100000  -3.2300000  -4.0120000  -5.8730000  -3.4350000
  -4.1360000  -4.0190000  -4.3680000  -3.2890000  -3.3730000  -4.6010000
  -4.3680000  -4.6530000  -5.2240000  -5.2940000  -3.1050000  -4.1260000
  -5.9820000  -2.6790000  -5.0660000  -5.7470000  -2.8870000  -2.8760000
  -5.1320000  -3.2380000  -2.1560000  -6.8890000  -2.0700000  -2.3980000
  -7.1490000  -1.3280000  -3.1530000  -6.5850000  -1.2790000  -1.1440000
  -5.5900000  -1.5430000  -0.4320000  -8.1120000  -2.9810000  -2.2360000
  -8.2200000  -3.6010000  -3.1260000  -8.1140000  -3.6450000  -1.3720000
  -9.4070000  -2.2330000  -2.3090000  -9.4890000  -0.9870000  -2.4540000
 -10.3950000  -2.9400000  -2.1610000  -7.4120000  -0.3070000  -0.7800000
  -8.2470000  -0.2370000  -1.3450000  -7.3380000   0.4330000   0.4360000
  -8.2070000   1.0890000   0.4920000  -7.3140000  -0.3100000   1.2330000
  -6.1310000   1.3440000   0.4490000  -5.4630000   1.4040000   1.4740000
  -5.7340000   1.9580000  -0.6780000  -6.4190000   1.8480000  -1.4120000
  -4.4290000   2.5690000  -0.9700000  -4.4650000   2.6600000  -2.0560000
  -3.1380000   1.6060000  -0.8220000  -2.0180000   2.1600000  -0.8630000
  -4.2810000   3.9980000  -0.3660000  -4.2640000   3.7960000   0.7050000
  -3.3750000   4.5390000  -0.6420000  -5.4500000   4.9770000  -0.7710000
  -5.4820000   4.9850000  -1.8610000  -6.4100000   4.6440000  -0.3780000
  -5.2540000   6.3540000  -0.1120000  -5.4420000   6.2760000   0.9590000
  -4.1910000   6.5710000  -0.2130000  -6.1930000   7.4660000  -0.6300000
  -7.1000000   7.0410000  -1.0600000  -6.4600000   8.0690000   0.2370000
  -5.5810000   8.3630000  -1.6110000  -5.2360000   7.9050000  -2.4430000
  -6.2200000   9.1010000  -1.8690000  -4.8450000   8.8730000  -1.1430000
  -3.2130000   0.2970000  -0.7540000  -4.1320000  -0.0950000  -0.9010000
  -1.9800000  -0.5200000  -0.7480000  -2.1750000  -1.4560000  -0.2250000
  -1.1470000   0.0210000  -0.2990000  -1.4260000  -0.9070000  -2.2190000
  -2.0730000  -0.6930000  -3.2640000  -0.2540000  -1.4690000  -2.3390000
   0.3600000  -1.4860000  -1.5380000   0.3160000  -2.0670000  -3.5260000
  -0.2650000  -1.7530000  -4.3930000   1.2510000  -1.5420000  -3.7220000
   0.4280000  -3.6000000  -3.3500000   0.7490000  -4.0810000  -2.2650000
   0.2250000  -4.4630000  -4.3980000   0.1340000  -5.4430000  -4.1710000
   0.0180000  -4.1340000  -5.8040000  -0.8180000  -4.7610000  -6.1140000
  -0.2450000  -3.0900000  -5.9710000   1.2620000  -4.6160000  -6.5570000
   2.2430000  -3.9520000  -6.4150000   1.0620000  -5.7140000  -7.1900000
   0.0910000  -5.9770000  -7.2870000   2.1380000  -6.5160000  -7.7400000
   3.1270000  -6.1300000  -7.4890000   1.9950000  -6.6810000  -9.2360000
   0.8960000  -6.6790000  -9.7740000   2.1000000  -7.8640000  -7.0070000
   2.8170000  -8.5780000  -7.4130000   1.1300000  -8.3250000  -7.1950000
   2.2040000  -7.8560000  -5.4920000   3.4150000  -8.0330000  -4.8120000
   4.3210000  -8.2440000  -5.3600000   1.0440000  -7.7450000  -4.6590000
   0.0750000  -7.7470000  -5.1350000   3.5360000  -7.9560000  -3.4120000
   4.4940000  -8.0410000  -2.9210000   1.1490000  -7.7310000  -3.2680000
   0.2440000  -7.6780000  -2.6810000   2.4290000  -7.7830000  -2.6420000
   2.5830000  -7.8550000  -1.5760000   3.0570000  -6.9080000  -9.8650000
   3.2120000  -0.8870000   6.4760000   2.8020000  -1.9170000   7.3390000
   1.4950000  -2.3320000   7.3430000   1.2210000  -3.5750000   7.8920000
  -0.0700000  -4.0580000   7.9230000  -1.1140000  -3.3000000   7.4100000
  -2.5260000  -3.8230000   7.4450000  -3.3610000  -3.2470000   8.1050000
  -2.8860000  -5.0430000   6.6930000  -3.2270000  -4.9710000   5.3470000
  -3.5750000  -6.1240000   4.6610000  -3.5750000  -7.3540000   5.3160000
  -3.2490000  -7.4250000   6.6650000  -2.9150000  -6.2630000   7.3640000
  -0.8450000  -2.0370000   6.8620000  -1.8640000  -1.2850000   6.3610000
   0.4620000  -1.5680000   6.8320000   3.5546112  -0.0262937   7.0691291
   4.0356673  -1.2462895   5.8415843   2.3667387  -0.5819588   5.8415843
   2.0402468  -4.1809622   8.3063000  -0.2737845  -5.0483871   8.3561342
  -3.2206134  -4.0012768   4.8277735  -3.8516289  -6.0680463   3.5978229
  -3.8334075  -8.2699773   4.7644466  -3.2540197  -8.3959277   7.1819857
  -2.6765632  -6.3110359   8.4367723  -1.6770909  -0.3932995   5.9736563
   0.6771571  -0.5803851   6.3980366
