
  474  0.0000000e+00
   1.0310000 -10.1160000   0.8730000   1.0530000  -9.1930000   0.4630000
   0.1700000 -10.5830000   0.6270000   1.8710000 -10.5840000   0.5650000
   1.0770000  -9.9400000   2.3260000   1.1710000 -10.8830000   2.8650000
  -0.2390000  -9.3990000   2.8240000  -0.8890000  -8.6910000   2.0640000
   2.2720000  -9.0580000   2.8080000   3.1340000  -9.3600000   2.2130000
   2.4990000  -9.3080000   3.8450000   2.0450000  -7.5690000   2.8150000
   2.0500000  -6.7990000   1.6380000   2.5120000  -7.2070000   0.7520000
   1.5140000  -7.0520000   4.0190000   1.5350000  -7.6880000   4.8920000
   1.7150000  -5.4420000   1.6900000   1.8290000  -4.8270000   0.8090000
   1.3250000  -5.6480000   4.0850000   0.9320000  -5.1440000   4.9550000
   1.4660000  -4.8490000   2.9430000   1.1820000  -3.4730000   2.9830000
   0.7470000  -3.2090000   3.7970000  -0.6270000  -9.7710000   4.0790000
   0.0160000 -10.3570000   4.5920000  -1.8840000  -9.4430000   4.7380000
  -2.3420000  -8.7540000   4.0290000  -1.6280000  -8.6800000   6.0870000
  -0.9530000  -9.2800000   6.9210000  -2.8520000 -10.5600000   4.9960000
  -2.3540000 -11.2280000   5.7000000  -3.1780000 -11.2860000   3.8780000
  -2.4450000 -11.8930000   3.7530000  -4.2140000 -10.2940000   5.6700000
  -4.8370000 -11.1830000   5.5700000  -4.1870000  -9.9640000   6.7090000
  -4.7530000  -9.5860000   5.0410000  -2.1770000  -7.4910000   6.2640000
  -2.7960000  -7.0500000   5.6000000  -2.0360000  -6.7070000   7.4640000
  -1.6510000  -7.4490000   8.1640000  -3.2980000  -5.9400000   7.9010000
  -3.9900000  -5.2880000   7.1100000  -0.9410000  -5.6200000   7.1560000
  -0.0570000  -6.1570000   6.8110000  -1.2000000  -4.9630000   6.3260000
  -0.4920000  -4.8540000   8.3750000  -0.4530000  -5.4280000   9.4590000
  -0.2720000  -3.6430000   8.3010000  -3.6440000  -5.9150000   9.1950000
  -3.0050000  -6.3040000   9.8750000  -5.0250000  -5.5060000   9.6600000
  -5.1650000  -4.5090000   9.2420000  -5.1530000  -5.4460000  10.7410000
  -6.2280000  -6.2990000   9.1540000  -7.3490000  -5.8180000   9.1850000
  -6.0090000  -7.5000000   8.6630000  -5.1060000  -7.8980000   8.8790000
  -6.9740000  -8.2820000   7.8590000  -6.6170000  -9.3040000   7.7350000
  -7.9450000  -8.4450000   8.3260000  -7.1340000  -7.8060000   6.4760000
  -7.9070000  -8.4100000   5.7570000  -6.5520000  -6.6780000   6.0170000
  -6.0930000  -5.9870000   6.5930000  -6.5130000  -6.3300000   4.6090000
  -7.3870000  -6.6130000   4.0230000  -5.2880000  -7.0300000   3.8420000
  -4.3110000  -7.3520000   4.4790000  -6.3100000  -4.7950000   4.5330000
  -6.3710000  -4.5020000   3.4850000  -5.3070000  -4.5450000   4.8780000
  -7.2890000  -3.9860000   5.4420000  -8.3430000  -4.2550000   5.3740000
  -7.0250000  -4.1910000   6.4790000  -7.1440000  -2.4680000   5.2850000
  -7.6270000  -2.0000000   6.1420000  -6.0650000  -2.3180000   5.2560000
  -7.7130000  -2.0020000   3.9580000  -8.5290000  -2.4820000   3.6060000
  -7.6750000  -0.8070000   3.4520000  -6.8910000   0.1370000   3.8450000
  -7.0680000   1.0300000   3.4090000  -6.4840000   0.1010000   4.7690000
  -8.4420000  -0.4210000   2.4760000  -8.4400000   0.5330000   2.1440000
  -9.0830000  -1.0880000   2.0710000  -5.3890000  -7.1390000   2.4930000
  -6.0190000  -6.5730000   1.9420000  -4.4210000  -7.9280000   1.7690000
  -3.5020000  -7.9940000   2.3510000  -3.9040000  -7.2040000   0.5400000
  -4.6680000  -6.6240000  -0.2380000  -4.9000000  -9.3370000   1.6100000
  -5.3260000  -9.6650000   2.5580000  -5.7640000  -9.3330000   0.9470000
  -3.7820000 -10.0670000   1.1060000  -3.4220000 -10.5430000   1.8580000
  -2.6280000  -7.2060000   0.3430000  -2.0490000  -7.5970000   1.0720000
  -1.9140000  -6.4970000  -0.6520000  -2.6400000  -6.1000000  -1.3620000
  -0.8750000  -7.3190000  -1.4720000  -0.4130000  -8.3580000  -0.9630000
  -1.2660000  -5.3030000   0.0200000  -0.7190000  -4.7190000  -0.7210000
  -0.5810000  -5.6570000   0.7900000  -2.3240000  -4.3440000   0.6590000
  -3.4070000  -3.7350000  -0.0860000  -3.5250000  -3.8310000  -1.1550000
  -2.3510000  -4.2560000   2.0680000  -1.5620000  -4.8000000   2.5660000
  -4.3150000  -2.9590000   0.6140000  -5.0280000  -2.3900000   0.0350000
  -3.3970000  -3.5740000   2.8070000  -3.3620000  -3.5900000   3.8870000
  -4.3290000  -2.8310000   2.0520000  -5.0260000  -2.1810000   2.5590000
  -0.4790000  -6.8530000  -2.6450000  -0.9030000  -6.0260000  -3.0420000
   0.4890000  -7.5880000  -3.4920000   0.3350000  -8.6530000  -3.3210000
   1.9810000  -7.3680000  -3.1420000   2.8140000  -8.3020000  -3.3720000
   0.2120000  -7.4190000  -4.9900000  -0.8380000  -7.6500000  -5.1700000
   1.0410000  -7.9660000  -5.4390000   0.3970000  -6.4090000  -5.3560000
   2.3880000  -6.2180000  -2.5470000   1.7390000  -5.4570000  -2.4080000
   3.7390000  -5.7620000  -2.3390000   4.3450000  -6.5900000  -1.9710000
   3.7770000  -4.7530000  -1.1980000   2.9640000  -3.7830000  -1.2190000
   4.4950000  -5.1600000  -3.5370000   4.0190000  -4.1990000  -3.7340000
   5.9880000  -4.8870000  -3.2730000   6.4610000  -5.7390000  -2.7850000
   6.3560000  -4.6290000  -4.2660000   6.0420000  -4.0130000  -2.6230000
   4.3160000  -5.9130000  -4.8790000   4.9370000  -5.4350000  -5.6360000
   4.7910000  -6.8920000  -4.9310000   3.2980000  -5.8560000  -5.2640000
   4.7410000  -4.8510000  -0.2210000   5.2980000  -5.6840000  -0.0940000
   4.9180000  -3.8700000   0.8440000   3.9660000  -3.3450000   0.7650000
   5.9380000  -2.8190000   0.5840000   5.8450000  -1.6190000   0.8140000
   5.0810000  -4.4820000   2.2410000   6.0330000  -4.9870000   2.4050000
   4.3500000  -5.2810000   2.3700000   4.8190000  -3.4910000   3.3250000
   5.4900000  -2.6320000   3.3560000   3.8430000  -3.0290000   3.1760000
   4.8900000  -4.3060000   4.6610000   4.3340000  -5.2400000   4.5700000
   5.9080000  -4.5210000   4.9850000   4.3010000  -3.4540000   5.7620000
   3.3290000  -3.1110000   5.4080000   4.1180000  -4.0710000   6.6420000
   5.0610000  -2.3210000   6.2280000   4.5830000  -1.7320000   6.8950000
   5.3770000  -1.8010000   5.4230000   5.9090000  -2.6090000   6.6950000
   7.0350000  -3.2250000  -0.0470000   7.1400000  -4.1440000  -0.4540000
   8.2310000  -2.3840000  -0.2960000   8.6230000  -2.1280000   0.6880000
   7.7960000  -1.0920000  -1.0410000   8.1490000   0.0270000  -0.6450000
   9.3360000  -3.2910000  -0.8630000  10.3080000  -2.8340000  -1.0490000
   9.5280000  -4.0640000  -0.1180000   8.9890000  -3.7730000  -1.7770000
   6.8950000  -1.2590000  -2.0840000   6.4930000  -2.1850000  -2.1130000
   6.3180000  -0.1990000  -2.9220000   7.1720000   0.3110000  -3.3690000
   5.5090000   0.7860000  -2.0490000   5.4480000   1.9920000  -2.3140000
   5.4700000  -0.8410000  -4.0690000   6.0420000  -1.5720000  -4.6400000
   5.2560000  -0.0690000  -4.8090000   4.5190000  -1.1940000  -3.6720000
   4.8180000   0.2350000  -1.0560000   4.9210000  -0.7470000  -0.8460000
   3.7920000   1.0560000  -0.3750000   3.2570000   1.5770000  -1.1690000
   4.5420000   1.9910000   0.6010000   4.3550000   3.2480000   0.5110000
   2.8880000   0.0750000   0.3710000   3.4040000  -0.7980000   0.7700000
   2.0180000   0.7110000   1.5260000   2.7260000   1.2660000   2.1420000
   1.2500000   1.3080000   1.0340000   1.5740000  -0.1180000   2.0770000
   1.8280000  -0.5300000  -0.6140000   1.1030000  -1.1190000  -0.0510000
   1.2570000   0.2870000  -1.0540000   2.3780000  -1.1710000  -1.3030000
   5.4720000   1.3930000   1.4400000   5.5400000   0.3880000   1.5140000
   6.2130000   2.1800000   2.4990000   5.5600000   2.8440000   3.0660000
   7.1430000   3.1870000   1.8380000   7.3710000   4.2780000   2.3650000
   6.8980000   1.3020000   3.4970000   7.1820000   2.0000000   4.2850000
   7.7920000   0.7460000   3.2130000   5.9900000   0.3110000   4.2080000
   4.7380000   0.5340000   4.1860000   6.4560000  -0.6820000   4.7360000
   7.6330000   2.8930000   0.6260000   7.4390000   1.9330000   0.3800000
   8.3880000   3.8090000  -0.1910000   9.0840000   4.3000000   0.4890000
   7.5320000   4.9790000  -0.8700000   7.8780000   6.1550000  -0.6810000
   9.1540000   3.0720000  -1.3130000   9.7880000   2.2720000  -0.9300000
   8.3700000   2.6040000  -1.9080000   9.9200000   3.9990000  -2.3200000
   9.4690000   4.9880000  -2.4120000  10.9560000   4.0230000  -1.9830000
   9.9860000   3.4710000  -3.7240000   9.0930000   2.7970000  -4.2820000
  11.0850000   3.6650000  -4.3570000   6.3480000   4.6370000  -1.3600000
   5.9720000   3.7070000  -1.2480000   5.4230000   5.5840000  -1.8200000
   5.8800000   6.2650000  -2.5390000   4.6910000   6.5050000  -0.7860000
   4.5450000   7.7310000  -1.0440000   4.4110000   4.8320000  -2.6170000
   3.5940000   5.5140000  -2.8540000   3.9940000   4.0440000  -1.9890000
   4.9480000   4.4580000  -3.4880000   4.3180000   5.9510000   0.3850000
   4.4100000   4.9760000   0.6330000   3.8950000   6.6970000   1.5730000
   2.9980000   7.2980000   1.4270000   5.0790000   7.6170000   2.0050000
   4.8690000   8.7970000   2.1220000   3.5970000   5.7220000   2.7290000
   4.3280000   4.9300000   2.8900000   2.1760000   5.0670000   2.5760000
   1.4170000   5.8130000   2.8120000   1.9850000   4.7180000   1.5620000
   3.6840000   6.3310000   4.1560000   3.1570000   5.7220000   4.8900000
   4.7470000   6.4770000   4.3510000   3.2680000   7.3310000   4.0380000
   1.8650000   3.8490000   3.4920000   1.0780000   3.2320000   3.0590000
   1.5550000   4.2530000   4.4550000   2.7260000   3.1860000   3.5750000
   6.3220000   7.1820000   2.1830000   6.5330000   6.1960000   2.1230000
   7.3410000   8.0150000   2.7760000   6.8860000   8.6380000   3.5450000
   7.8350000   9.0290000   1.6850000   8.3970000  10.0690000   2.0730000
   8.4770000   7.1510000   3.2530000   8.7130000   6.4600000   2.4440000
   9.3810000   7.7450000   3.3900000   8.1550000   6.6130000   4.1450000
   7.6330000   8.7950000   0.3890000   7.2000000   7.9220000   0.1240000
   7.9480000   9.7890000  -0.6170000   8.9280000  10.2270000  -0.4260000
   6.7910000  10.9230000  -0.6630000   7.0840000  12.0380000  -1.1230000
   8.0270000   9.1190000  -1.9970000   7.0510000   8.6420000  -2.0820000
   8.1460000   9.8080000  -2.8330000   8.8830000   8.4470000  -2.0700000
   5.5480000  10.6330000  -0.3430000   5.5010000   9.7210000   0.0870000
   4.3540000  11.4920000  -0.4890000   4.6530000  12.5400000  -0.4620000
   3.6880000  11.2980000   0.3520000   3.6060000  11.4320000  -1.8380000
   2.8820000  12.3340000  -2.1500000   3.6480000  10.2210000  -2.4350000
   4.2160000   9.5300000  -1.9670000   2.9150000   9.8910000  -3.6320000
   2.9760000  10.7160000  -4.3420000   1.4900000   9.5700000  -3.4390000
   0.6950000   9.8640000  -4.2390000   3.5470000   8.5900000  -4.2830000
   3.4590000   7.7690000  -3.5710000   3.0190000   8.3120000  -5.1950000
   5.0490000   8.6740000  -4.6640000   5.6560000   8.6860000  -3.7590000
   5.4560000   7.4180000  -5.4470000   4.9830000   7.3680000  -6.4280000
   5.0830000   6.4890000  -5.0160000   6.5410000   7.3430000  -5.5220000
   5.2960000   9.9150000  -5.4910000   4.7710000   9.8580000  -6.4450000
   4.9480000  10.8240000  -5.0000000   6.3770000  10.0440000  -5.5400000
   1.2790000   8.8530000  -2.3710000   2.1460000   8.5790000  -1.9320000
   0.0030000   8.4520000  -1.7360000  -0.8050000   8.9970000  -2.2250000
  -0.1780000   8.8400000  -0.2630000   0.7410000   8.7440000   0.5780000
  -0.2490000   6.9900000  -1.9050000  -1.2210000   6.8310000  -1.4400000
  -0.4290000   6.6500000  -3.3750000   0.5200000   6.7320000  -3.9040000
  -1.1970000   7.2920000  -3.8080000  -0.8330000   5.6400000  -3.4400000
   0.7780000   5.9980000  -1.3670000   0.3850000   5.0060000  -1.5860000
   1.7740000   6.1210000  -1.7930000   0.8430000   5.9080000  -0.2820000
  -1.3560000   9.2930000   0.1260000  -2.0990000   9.4950000  -0.5270000
  -1.6200000   9.6350000   1.5440000  -0.8090000  10.2120000   1.9870000
  -1.9540000   8.4000000   2.3720000  -1.6590000   8.3790000   3.5370000
  -2.8160000  10.6640000   1.7560000  -2.7170000  11.1580000   2.7220000
  -4.1180000   9.9460000   1.7360000  -4.0920000   9.5090000   0.8820000
  -2.7890000  11.7560000   0.7130000  -1.8430000  12.2790000   0.8550000
  -2.8590000  11.2350000  -0.2410000  -3.6270000  12.4420000   0.8370000
  -2.4410000   7.3740000   1.6600000  -2.7390000   7.6070000   0.7230000
  -3.0090000   6.0970000   2.1800000  -2.5130000   5.7660000   3.0930000
  -3.0740000   4.9830000   1.1080000  -3.0730000   5.2040000  -0.0920000
  -4.4220000   6.3650000   2.7450000  -4.7280000   5.5240000   3.3670000
  -4.4100000   7.2640000   3.3610000  -5.2660000   6.5320000   1.6400000
  -4.8170000   7.1990000   1.1130000  -3.1610000   3.7410000   1.5540000
  -3.0800000   3.6540000   2.5570000  -3.4350000   2.4770000   0.8390000
  -2.6340000   2.4060000   0.1040000  -4.6520000   2.5340000  -0.0930000
  -4.6800000   1.8830000  -1.1000000  -3.5930000   1.2460000   1.7640000
  -4.0730000   0.4750000   1.1620000  -4.2340000   1.4970000   2.6090000
  -2.2100000   0.7520000   2.1120000  -1.4800000   1.4890000   2.4470000
  -2.2120000  -0.1450000   3.3180000  -1.2950000  -0.6910000   3.5400000
  -2.3780000   0.3670000   4.2660000  -3.0730000  -0.7980000   3.1690000
  -1.5550000  -0.0140000   0.9690000  -1.4040000   0.7210000   0.1790000
  -2.1840000  -0.8140000   0.5780000  -0.5860000  -0.4460000   1.2170000
  -5.6790000   3.2800000   0.2770000  -5.6830000   3.9170000   1.0600000
  -6.9630000   3.4430000  -0.4340000  -7.2580000   2.4270000  -0.6960000
  -6.7120000   4.3080000  -1.6750000  -7.5620000   4.5800000  -2.4780000
  -8.0780000   4.1380000   0.4750000  -8.8600000   4.4820000  -0.2020000
  -7.5780000   5.0380000   0.8320000  -8.5340000   3.3610000   1.6850000
  -8.1800000   2.1510000   1.7720000  -9.1450000   3.8980000   2.6480000
  -5.5610000   5.0570000  -1.6710000  -4.8700000   4.9680000  -0.9410000
  -5.1970000   5.9540000  -2.8350000  -6.1020000   6.3500000  -3.2960000
  -4.4990000   5.2090000  -3.9250000  -4.4430000   5.6260000  -5.0720000
  -4.2870000   7.0620000  -2.3850000  -3.8560000   7.5760000  -3.2440000
  -3.4150000   6.5510000  -1.9780000  -4.8900000   8.0860000  -1.4010000
  -5.9800000   8.6650000  -1.6920000  -4.3260000   8.3450000  -0.2860000
  -3.7330000   4.1540000  -3.4330000  -3.9930000   3.8330000  -2.5110000
  -2.8510000   3.2770000  -4.2190000  -2.1590000   3.8860000  -4.8010000
  -3.6660000   2.4640000  -5.3450000  -4.7050000   1.8610000  -5.0210000
  -2.1430000   2.3020000  -3.3290000  -2.0240000   2.8030000  -2.3690000
  -2.8590000   1.4860000  -3.2310000  -0.7550000   1.8180000  -3.8330000
   0.4130000   2.5390000  -3.4730000   0.3690000   3.4190000  -2.8500000
  -0.6880000   0.6740000  -4.6690000  -1.6210000   0.2440000  -5.0030000
   1.6630000   1.9540000  -3.7270000   2.5380000   2.4190000  -3.2960000
   0.6130000   0.1950000  -4.9310000   0.6720000  -0.7250000  -5.4950000
   1.8040000   0.7720000  -4.5110000   2.7780000   0.3520000  -4.7180000
  -3.1660000   2.3730000  -6.5750000  -2.2850000   2.8330000  -6.7570000
  -3.8540000   1.8870000  -7.6960000  -4.8990000   1.9570000  -7.3930000
  -3.4370000   0.4470000  -7.9810000  -2.3920000   0.2690000  -8.5920000
  -3.6850000   2.8480000  -8.9030000  -2.6290000   2.8530000  -9.1700000
  -4.1330000   2.3410000  -9.7580000  -4.2570000   4.2610000  -8.7290000
  -5.5040000   4.4100000  -8.4940000  -3.4320000   5.1970000  -8.8780000
  -4.1450000  -0.5110000  -7.3030000  -5.0810000  -0.2600000  -7.0190000
  -3.8650000  -1.9450000  -7.4050000  -2.8010000  -2.1600000  -7.5040000
  -4.4440000  -2.5580000  -8.6320000  -5.6170000  -2.3420000  -8.9650000
  -4.2110000  -2.6010000  -6.0380000  -5.2700000  -2.4790000  -5.8090000
  -4.0980000  -3.6460000  -6.3260000  -3.4330000  -2.3030000  -4.8380000
  -3.7750000  -1.3160000  -3.8980000  -4.6440000  -0.6830000  -3.9980000
  -2.1110000  -2.7630000  -4.5070000  -2.7360000  -1.2500000  -2.9420000
  -2.7840000  -0.5300000  -2.2350000  -1.6270000  -1.9980000  -3.3740000
  -1.2540000  -3.7210000  -5.1080000  -1.6880000  -4.3150000  -5.8990000
  -0.3490000  -2.2030000  -2.8490000  -0.0930000  -1.8200000  -1.8730000
   0.0410000  -3.8450000  -4.6010000   0.7620000  -4.4250000  -5.1570000
   0.5360000  -3.1450000  -3.4540000   1.5370000  -3.2400000  -3.0590000
  -3.7130000  -3.2770000  -9.4450000  -4.4350000  -8.5870000  -5.2360000
  -4.3980000  -7.1790000  -5.5650000  -5.4950000  -6.4060000  -5.3210000
  -5.4120000  -5.0310000  -5.1150000  -6.5540000  -4.2940000  -4.8630000
  -7.7920000  -4.9120000  -4.8300000  -9.0370000  -4.1270000  -4.5700000
  -9.9020000  -4.0770000  -5.4180000  -9.2430000  -3.4160000  -3.2900000
  -9.2580000  -2.0250000  -3.2680000  -9.4610000  -1.3590000  -2.0620000
  -9.6130000  -2.0610000  -0.8750000  -9.5550000  -3.4450000  -0.9000000
  -9.3730000  -4.1240000  -2.1060000  -7.8840000  -6.2960000  -5.0350000
  -9.1110000  -6.9000000  -4.9910000  -6.7230000  -7.0300000  -5.2770000
  -4.4381826  -8.7081115  -4.1426922  -5.3453132  -9.0382487  -5.6575502
  -3.5496430  -9.0854360  -5.6575502  -4.4337067  -4.5295036  -5.1529944
  -6.4784506  -3.2106770  -4.6877756  -9.1104717  -1.4550144  -4.1971673
  -9.5014480  -0.2598062  -2.0502979  -9.7771888  -1.5264560   0.0722617
  -9.6530520  -4.0127630   0.0370331  -9.3327060  -5.2232122  -2.1164376
  -9.1874210  -7.8765798  -5.1343587  -6.7880741  -8.1167683  -5.4341621
