
  400  0.0000000e+00
   5.6970000   4.2960000   0.0670000   5.4980000   3.3650000   0.4060000
   6.6930000   4.3220000  -0.0940000   5.2050000   4.2250000  -0.8120000
   5.1030000   5.3530000   0.9960000   5.4270000   5.0830000   2.0010000
   3.5890000   5.2310000   1.1010000   2.9130000   5.2130000   0.0720000
   5.6270000   6.8270000   0.7140000   4.8890000   7.5140000   0.3000000
   6.3360000   6.7200000  -0.1070000   6.2730000   7.4780000   1.9500000
   5.5400000   8.1670000   2.3710000   6.5200000   6.7300000   2.7030000
   7.5500000   8.2240000   1.5480000   7.4870000   8.9290000   0.7190000
   7.8640000   8.7830000   2.4300000   8.5230000   7.2350000   1.1680000
   8.3480000   6.4560000   0.5490000   9.7640000   7.1210000   1.7460000
  10.2820000   7.8670000   2.7510000   9.7830000   8.6280000   3.1870000
  11.1930000   7.6720000   3.1410000  10.5830000   6.2530000   1.2850000
  11.5640000   6.3340000   1.5100000  10.3650000   5.6300000   0.5210000
   2.9940000   5.5650000   2.2690000   3.5310000   5.8880000   3.0610000
   1.4910000   5.5290000   2.3550000   1.0490000   4.6180000   1.9530000
   1.2860000   5.7400000   3.4050000   0.8580000   6.5940000   1.4190000
   1.5010000   7.6040000   1.0330000  -0.4200000   6.3660000   1.0910000
  -0.8170000   5.4910000   1.4030000  -1.1790000   7.1360000   0.0670000
  -0.5060000   7.3360000  -0.7660000  -1.3440000   8.1550000   0.4170000
  -2.4640000   6.6210000  -0.5750000  -3.3330000   6.0610000   0.1260000
  -2.6330000   6.8110000  -1.8780000  -1.9480000   7.4470000  -2.2620000
  -3.8940000   6.3510000  -2.5620000  -4.8600000   6.4990000  -2.0800000
  -3.8930000   4.8240000  -2.9190000  -3.8750000   4.4290000  -4.1230000
  -4.0200000   7.1410000  -3.7950000  -3.1100000   6.9790000  -4.3730000
  -4.7750000   6.6940000  -4.4410000  -4.0540000   8.7120000  -3.6280000
  -4.6310000   9.1470000  -2.6010000  -3.3220000   9.3550000  -4.4130000
  -3.8000000   3.9260000  -1.9260000  -3.6330000   4.3160000  -1.0100000
  -3.4890000   2.4670000  -2.1400000  -3.2390000   2.0750000  -1.1530000
  -2.6900000   2.3900000  -2.8770000  -4.7300000   1.6980000  -2.6220000
  -5.8640000   2.1220000  -2.3770000  -4.5720000   0.4760000  -3.2090000
  -3.6420000   0.0990000  -3.3200000  -5.7190000  -0.1820000  -3.8270000
  -5.2760000  -0.9160000  -4.5000000  -6.3520000   0.5420000  -4.3410000
  -6.5010000  -1.0550000  -2.9090000  -6.8840000  -0.6070000  -1.7790000
  -6.9310000  -2.2130000  -3.4370000  -6.6600000  -2.6140000  -4.3240000
  -7.9220000  -3.0730000  -2.7400000  -8.8390000  -2.5160000  -2.5430000
  -7.4630000  -3.7960000  -1.4400000  -8.3170000  -4.0240000  -0.6220000
  -8.3420000  -4.1030000  -3.8700000  -7.4500000  -4.7130000  -4.0130000
  -8.4670000  -3.5650000  -4.8090000  -9.5810000  -4.9390000  -3.5580000
  -9.5390000  -5.4890000  -2.6180000 -10.4250000  -4.2550000  -3.4730000
  -9.7910000  -6.0210000  -4.6080000  -9.6630000  -5.5750000  -5.5950000
  -8.9660000  -6.7320000  -4.5730000 -11.0850000  -6.8800000  -4.3860000
 -11.9860000  -6.2670000  -4.3910000 -10.9220000  -7.3380000  -3.4110000
 -11.1800000  -7.8450000  -5.4800000 -12.0230000  -8.3960000  -5.3990000
 -11.2570000  -7.3640000  -6.3650000 -10.3390000  -8.4050000  -5.4760000
  -6.1400000  -4.1840000  -1.3800000  -5.6160000  -4.0420000  -2.2310000
  -5.4950000  -4.8390000  -0.2520000  -6.0670000  -4.6360000   0.6530000
  -5.4310000  -5.9210000  -0.3700000  -4.1530000  -4.1490000   0.0070000
  -3.6400000  -3.3580000  -0.8080000  -3.4680000  -4.5020000   1.1230000
  -3.9380000  -5.0860000   1.8000000  -2.0920000  -4.1450000   1.3950000
  -1.4550000  -4.3400000   0.5310000  -1.9880000  -3.0960000   1.6700000
  -1.5120000  -5.0330000   2.5850000  -2.2500000  -5.5170000   3.4490000
  -0.1510000  -5.1580000   2.6310000   0.3840000  -4.9850000   1.7920000
   0.5760000  -5.8770000   3.7130000   0.1900000  -6.8950000   3.7740000
   1.6420000  -5.9690000   3.5030000   0.3150000  -5.3280000   5.1150000
  -0.1910000  -4.2450000   5.2680000   0.7230000  -6.1120000   6.1260000
   1.2710000  -6.9340000   5.9150000   0.1230000  -6.0070000   7.4990000
   0.3390000  -6.8790000   8.1160000  -0.9570000  -6.0130000   7.3480000
   0.6200000  -4.8130000   8.3230000  -0.0920000  -4.1320000   9.0840000
   1.8320000  -4.3320000   8.0060000   2.3280000  -4.8000000   7.2610000
   2.4180000  -3.0190000   8.4120000   1.6400000  -2.3620000   8.8020000
   2.9570000  -2.3380000   7.1640000   3.2830000  -2.9580000   6.1900000
   3.5760000  -3.1900000   9.4230000   4.3020000  -3.9250000   9.0770000
   4.0520000  -2.2270000   9.6050000   3.1600000  -3.6550000  10.8030000
   2.4730000  -4.4960000  10.7070000   4.3970000  -3.8200000  11.6960000
   4.8820000  -2.8890000  11.9890000   5.1360000  -4.4930000  11.2600000
   3.9760000  -4.3410000  12.5560000   2.3110000  -2.5110000  11.4180000
   1.3740000  -2.4610000  10.8630000   2.0900000  -2.6140000  12.4800000
   2.9140000  -1.6070000  11.3260000   3.0570000  -1.0140000   7.2020000
   2.5550000  -0.5420000   7.9410000   3.5760000  -0.2620000   6.0290000
   4.2280000   0.5810000   6.2580000   4.2690000  -0.9040000   5.4830000
   2.5520000   0.1820000   4.9700000   2.8710000   0.7300000   3.9520000
   1.2710000  -0.0540000   5.1960000   1.0850000  -0.3940000   6.1290000
   0.0760000   0.0700000   4.3540000   0.3220000  -0.2790000   3.3510000
  -0.3000000   1.0930000   4.3620000  -1.0280000  -0.7360000   4.9650000
  -0.9650000  -1.1010000   6.1450000  -2.0610000  -0.9020000   4.1410000
  -2.0000000  -0.6030000   3.1780000  -3.3000000  -1.6200000   4.6250000
  -3.0740000  -2.6360000   4.9490000  -3.7430000  -1.0370000   5.4330000
  -4.4760000  -1.6430000   3.5730000  -5.4590000  -2.3940000   3.6970000
  -4.3050000  -0.9440000   2.4300000  -3.4760000  -0.3690000   2.3700000
  -5.2260000  -0.6980000   1.2970000  -4.7190000  -0.9970000   0.3790000
  -6.1160000  -1.3120000   1.4310000  -5.5840000   0.7760000   1.0460000
  -4.7390000   1.6260000   0.8500000  -6.9530000   0.9320000   0.9090000
  -7.5150000   0.1640000   1.2490000  -7.6730000   2.1470000   0.3520000
  -7.4200000   2.4490000  -0.6640000  -7.4170000   3.4740000   1.0650000
  -7.7530000   3.5880000   2.2700000  -9.1770000   1.9080000   0.2440000
  -9.7630000   2.8270000   0.2190000  -9.6320000   1.4770000   1.1360000
  -9.6040000   1.1310000  -0.9710000  -9.0190000   1.6190000  -1.7510000
  -9.3050000   0.0830000  -0.9480000 -11.1040000   1.3760000  -1.3150000
 -11.6010000   0.8400000  -0.5060000 -11.4220000   2.4050000  -1.1480000
 -11.3980000   0.7770000  -2.7110000 -10.6670000   1.1820000  -3.4100000
 -11.3370000  -0.2950000  -2.5280000 -12.6850000   1.1120000  -3.3010000
 -13.3860000   0.7970000  -2.6470000 -12.6420000   2.1170000  -3.3950000
 -12.7450000   0.7680000  -4.2490000  -6.7740000   4.4490000   0.4320000
  -6.6600000   4.3540000  -0.5670000  -6.4490000   5.6370000   1.1560000
  -7.3800000   6.0560000   1.5370000  -5.9590000   6.4090000   0.5620000
  -5.5030000   5.3340000   2.3990000  -5.4110000   6.2250000   3.2610000
  -4.8110000   4.2050000   2.5120000  -5.0190000   3.5000000   1.8190000
  -3.7480000   3.8420000   3.4820000  -3.7890000   4.6330000   4.2300000
  -2.3750000   3.8350000   2.8900000  -1.3520000   4.4630000   3.2860000
  -4.0700000   2.4880000   4.1750000  -3.9990000   1.7190000   3.4070000
  -5.4580000   2.4460000   4.8180000  -6.1820000   2.9310000   4.1640000
  -5.4500000   3.1510000   5.6490000  -3.0620000   2.2350000   5.3260000
  -2.0650000   2.3640000   4.9050000  -3.1860000   1.2830000   5.8420000
  -3.1840000   3.0110000   6.0820000  -5.9260000   1.0750000   5.3400000
  -5.2460000   0.6100000   6.0540000  -6.0850000   0.5010000   4.4270000
  -6.9280000   1.1540000   5.7630000  -2.2650000   3.0830000   1.7730000
  -3.0560000   2.5700000   1.4090000  -1.0180000   2.6250000   1.1810000
  -0.2400000   2.9660000   1.8640000  -0.9960000   2.9960000   0.1560000
  -0.9740000   1.1370000   1.1040000  -1.7970000   0.3240000   1.5440000
   0.2810000   0.7030000   0.7360000   0.9870000   1.4040000   0.5600000
   0.5440000  -0.7050000   0.3600000  -0.2970000  -1.3320000   0.6560000
   1.9090000  -1.0900000   1.0090000   3.0470000  -0.5880000   0.6560000
   0.6630000  -0.7500000  -1.1910000   0.5990000  -1.8040000  -1.4610000
   1.6430000  -0.3820000  -1.4950000  -0.4590000   0.0520000  -1.9220000
  -0.0910000   1.0740000  -2.0120000  -1.4230000  -0.0240000  -1.4190000
  -0.6090000  -0.3750000  -3.3240000  -1.6740000  -0.0110000  -3.8410000
   0.2580000  -1.0730000  -3.8680000   1.8830000  -1.9490000   2.0390000
   1.0610000  -2.3950000   2.4220000   3.0350000  -2.7330000   2.5220000
   3.9610000  -2.2360000   2.2310000   2.8340000  -2.9910000   3.5610000
   3.0820000  -4.0680000   1.6630000   2.4840000  -4.3080000   0.6270000
   3.8660000  -5.0190000   2.1960000   4.3690000  -4.8320000   3.0510000
   4.1870000  -6.2730000   1.5270000   4.2140000  -6.1620000   0.4430000
   2.9860000  -7.2280000   1.6630000   2.9320000  -7.9720000   2.6550000
   5.5300000  -6.8280000   2.0320000   5.7890000  -7.8350000   1.7040000
   5.4670000  -6.9350000   3.1150000   6.6650000  -5.9130000   1.7140000
   7.4630000  -5.2990000   2.6010000   7.2300000  -5.2290000   3.6530000
   7.1950000  -5.5020000   0.3490000   8.3280000  -4.4170000   1.9280000
   8.9090000  -3.7220000   2.3750000   8.1560000  -4.4840000   0.5600000
   6.7630000  -5.8210000  -0.9700000   5.9360000  -6.4810000  -1.1860000
   8.6570000  -3.7600000  -0.5450000   9.3300000  -2.9340000  -0.3660000
   7.3360000  -5.1080000  -2.0800000   7.1360000  -5.4000000  -3.1000000
   8.2710000  -4.0650000  -1.8660000   8.5730000  -3.4760000  -2.7190000
   2.0370000  -7.2460000   0.7080000   2.3420000  -6.7900000  -0.1410000
   0.7440000  -7.9470000   0.7630000   0.8940000  -9.0020000   0.5360000
   0.3820000  -7.8760000   1.7880000  -0.4640000  -7.4370000  -0.0650000
  -0.3970000  -6.2920000  -0.5640000  -1.4760000  -8.2470000  -0.2240000
  -1.4750000  -9.1010000   0.3150000  -2.7710000  -8.0780000  -0.9570000
  -3.3300000  -9.0090000  -0.8740000  -3.3710000  -7.3520000  -0.4080000
  -2.8880000  -7.5910000  -2.3770000  -1.9340000  -7.6540000  -3.0870000
  -4.0600000  -7.1870000  -2.8350000  -4.8500000  -7.3040000  -2.2170000
  -4.2800000  -6.5610000  -4.1530000  -3.5050000  -7.0150000  -4.7700000
  -4.0130000  -5.0190000  -4.2280000  -4.9840000  -4.2440000  -4.3120000
  -5.6510000  -6.9740000  -4.5440000  -6.3020000  -6.7750000  -3.6930000
  -5.9160000  -6.4200000  -5.4440000  -5.9640000  -8.4130000  -4.8960000
  -5.0340000  -9.1600000  -5.3750000  -7.0250000  -8.9260000  -4.5370000
  -2.7820000  -4.5720000  -4.0170000  -2.0270000  -5.2370000  -4.1010000
  -2.4670000  -3.1120000  -4.1230000  -1.5660000  -2.8810000  -3.5550000
  -3.2310000  -2.5170000  -3.6220000  -2.2290000  -2.7370000  -5.5470000
  -1.9010000  -3.6190000  -6.3570000  -2.6060000  -1.4890000  -5.9150000
  -2.5540000  -0.8690000  -5.1200000  -2.9000000  -0.8990000  -7.2360000
  -2.4870000  -1.6180000  -7.9440000  -2.3500000   0.5370000  -7.4090000
  -2.5610000   1.2010000  -8.4310000  -4.3800000  -0.8100000  -7.5480000
  -4.8160000  -0.0510000  -6.8980000  -4.5340000  -0.5680000  -8.6000000
  -5.1190000  -1.9720000  -7.2450000  -5.9080000  -1.5270000  -6.9270000
  -1.5540000   1.0190000  -6.4660000  -1.2860000   0.5260000  -5.6260000
  -1.3970000   2.4340000  -6.4660000  -1.0290000   2.8350000  -7.4110000
  -2.4300000   2.7620000  -6.3520000  -0.4850000   2.9830000  -5.3880000
   0.7000000   2.6450000  -5.3240000  -0.9690000   3.8860000  -4.5490000
  -1.9290000   4.1980000  -4.5890000  -0.0760000   4.4730000  -3.5340000
   0.3990000   3.7420000  -2.8790000  -0.6730000   5.0960000  -2.8690000
   1.0150000   5.4310000  -4.0770000   0.9890000   5.8860000  -5.2610000
   2.0750000   5.6010000  -3.3050000   1.9630000   5.4320000  -2.3160000
   3.3680000   6.1610000  -3.7460000   3.3310000   6.5170000  -4.7760000
   4.5930000   5.2850000  -3.5450000   4.7820000   4.8370000  -2.4490000
   3.5260000   7.4310000  -2.9210000   2.6590000   8.0630000  -3.1140000
   3.4950000   7.1530000  -1.8680000   4.9150000   8.2910000  -3.1050000
   5.3070000   7.9300000  -4.0560000   5.5510000   8.1970000  -2.2250000
   4.7120000   9.8300000  -3.2520000   3.7890000  10.3830000  -3.9150000
   5.5700000  10.5230000  -2.6130000   5.3930000   4.9580000  -4.5800000
   5.0150000   5.3010000  -5.4520000   6.5040000   4.0810000  -4.5810000
   6.2790000   3.1430000  -4.0730000   6.9130000   3.8820000  -5.5720000
   7.6790000   4.6800000  -3.8250000   8.7830000   4.0470000  -3.8300000
   7.6090000   5.9150000  -3.3300000   6.7430000   6.4240000  -3.4300000
   8.7590000   6.4440000  -2.4830000   9.6760000   6.4100000  -3.0710000
   9.1480000   5.4940000  -1.3960000  10.3450000   5.2290000  -1.2980000
   8.5110000   7.8510000  -2.0750000   7.8550000   7.9280000  -1.2080000
   8.1230000   8.3890000  -2.9390000   9.7840000   8.3150000  -1.6920000
  10.2940000   8.3660000  -2.5030000   8.2400000   4.9910000  -0.7220000
   5.7050000  -5.7710000  -3.1570000   4.2550000  -5.4810000  -2.8590000
   3.9810000  -4.0060000  -2.7830000   4.2000000  -3.3320000  -4.0980000
   5.1270000  -2.1370000  -4.0260000   4.4850000  -0.9120000  -4.6600000
   4.6090000   0.3680000  -3.8550000   6.3180000  -2.4510000  -4.7080000
   7.4160000  -2.6950000  -4.0080000   8.2980000  -3.4290000  -4.3990000
   7.4130000  -2.0240000  -2.7020000   8.0890000  -0.8800000  -2.5520000
   8.2330000  -0.2100000  -1.2480000   9.4100000  -0.2400000  -0.5360000
   9.5210000   0.4330000   0.6700000   8.4510000   1.1260000   1.1680000
   8.5080000   1.8210000   2.3420000   9.5360000   1.5360000   3.2840000
   7.2650000   1.1640000   0.4590000   7.1570000   0.4810000  -0.7460000
   6.2583599  -5.8816720  -2.2127836   5.7808697  -6.7021057  -3.7377632
   6.1331512  -4.9406984  -3.7377632   3.6344511  -5.9170419  -3.6557349
   4.0139256  -5.9225464  -1.8807772   2.9362261  -3.8534795  -2.4744793
   4.6771688  -3.5663195  -2.0535961   4.6323595  -4.0646499  -4.7953445
   3.2212285  -2.9581306  -4.4330045   5.3363843  -1.9066765  -2.9709601
   4.9592362  -0.7465496  -5.6386348   3.4087611  -1.1295002  -4.7263583
   4.5859084   0.1296348  -2.7813852   5.5594580   0.8646024  -4.0999809
   3.7715380   1.0378072  -4.0999809   6.8603484  -2.4579012  -1.8556514
   8.5555268  -0.4215887  -3.4364274  10.2700612  -0.8030197  -0.9275399
  10.4691425   0.4103288   1.2272358   9.1393456   1.6459674   4.3040845
   9.8916645   0.5053744   3.1380078  10.3715620   2.2363731   3.1380078
   6.4083766   1.7339055   0.8481067   6.2067534   0.4935617  -1.2999618
