
  670  0.0000000e+00
   7.6520000  21.5570000  -8.4140000   8.3860000  20.8750000  -8.2900000
   7.9510000  22.5150000  -8.3030000   6.8910000  21.4100000  -7.7660000
   7.2310000  21.4680000  -9.8400000   6.6640000  22.3340000 -10.1830000
   6.3080000  20.2690000 -10.0240000   6.3920000  19.2280000  -9.3990000
   8.4430000  21.2460000 -10.8100000   7.9430000  21.4020000 -11.7660000
   8.9810000  20.3050000 -10.6940000   9.5590000  22.2630000 -10.6750000
  10.8840000  21.9050000 -10.3060000  11.1610000  20.9150000  -9.9750000
   9.3390000  23.5870000 -10.9510000   8.3690000  23.8740000 -11.3280000
  11.9140000  22.8690000 -10.1130000  12.9260000  22.6190000  -9.8320000
  10.3310000  24.5910000 -10.7620000  10.2590000  25.6420000 -10.9990000
  11.5910000  24.2390000 -10.3490000  12.5490000  25.1930000 -10.1170000
  12.2460000  26.0380000 -10.4570000   5.3670000  20.4580000 -10.9940000
   5.4390000  21.3460000 -11.4710000   4.2210000  19.5450000 -11.3540000
   3.5160000  19.5290000 -10.5230000   4.7620000  18.0550000 -11.5130000
   4.1400000  17.1930000 -10.9340000   3.5150000  19.9890000 -12.5900000
   4.3270000  19.9800000 -13.3180000   2.8670000  21.3950000 -12.5290000
   3.6660000  22.1140000 -12.3510000   2.5220000  21.6590000 -13.5290000
   2.4580000  18.9310000 -13.0490000   2.0600000  18.4060000 -12.1810000
   2.9230000  18.1920000 -13.7020000   1.6780000  19.4520000 -13.6050000
   1.8350000  21.8040000 -11.4740000   1.6810000  22.8450000 -11.7580000
   2.2900000  21.7460000 -10.4850000   0.9450000  21.1930000 -11.6180000
   5.9240000  17.7910000 -12.1900000   6.3610000  18.6040000 -12.6010000
   6.5280000  16.4200000 -12.2520000   5.7850000  15.8070000 -12.7610000
   6.8060000  15.8010000 -10.9190000   6.1710000  14.7860000 -10.6440000
   7.8100000  16.5170000 -13.1880000   8.1880000  15.4950000 -13.1660000
   7.6270000  16.8500000 -14.2100000   8.8460000  17.4890000 -12.6260000
   8.5740000  18.7100000 -12.5420000  10.0210000  17.0040000 -12.1850000
  10.6130000  17.6310000 -11.6580000  10.2570000  16.0280000 -12.2950000
   7.4770000  16.5730000 -10.0610000   7.7780000  17.4800000 -10.3900000
   7.8070000  16.2180000  -8.6290000   8.0420000  15.1570000  -8.7070000
   6.6460000  16.1190000  -7.7470000   6.6690000  15.3630000  -6.7800000
   9.0350000  16.9580000  -8.1520000   9.6950000  16.9620000  -9.0190000
   9.6060000  16.4770000  -7.3580000   8.7000000  18.3750000  -7.5900000
   9.3220000  19.3600000  -8.0580000   7.8230000  18.4750000  -6.6860000
   5.6540000  16.9490000  -7.9590000   5.7800000  17.6410000  -8.6840000
   4.3190000  16.7740000  -7.3300000   4.3040000  16.8140000  -6.2410000
   3.6370000  15.4530000  -7.6450000   3.4130000  14.6220000  -6.7870000
   3.3820000  17.9270000  -7.7760000   3.3010000  17.8990000  -8.8630000
   2.4260000  17.7830000  -7.2720000   3.7390000  19.1550000  -7.1900000
   4.0260000  19.5830000  -8.0000000   3.4100000  15.2040000  -8.9600000
   3.6530000  15.8930000  -9.6580000   2.8410000  13.9520000  -9.4010000
   1.8090000  13.8770000  -9.0580000   3.5870000  12.7480000  -8.9450000
   2.9800000  11.9620000  -8.2900000   2.6770000  13.8920000 -10.9410000
   1.9540000  14.6220000 -11.3040000   3.6480000  14.1350000 -11.3730000
   2.2550000  12.5290000 -11.3320000   1.0470000  11.9840000 -10.8440000
   0.4020000  12.7150000 -10.3810000   3.2390000  11.6950000 -11.9970000
   4.2430000  12.0180000 -12.2310000   0.7660000  10.6550000 -11.0590000
  -0.1300000  10.2510000 -10.6120000   2.8710000  10.3410000 -12.2120000
   3.6300000   9.6660000 -12.5800000   1.6510000   9.8240000 -11.7970000
   1.5670000   8.7470000 -11.7960000   4.9040000  12.7320000  -9.0620000
   5.3280000  13.3440000  -9.7450000   5.7590000  11.6790000  -8.5790000
   5.5750000  10.7400000  -9.1020000   5.5640000  11.2970000  -7.1040000
   5.2990000  10.1610000  -6.7760000   7.2330000  12.0300000  -8.9410000
   7.3400000  13.0960000  -8.7390000   7.4140000  11.9120000 -10.5120000
   7.2470000  10.8810000 -10.8250000   6.6510000  12.5070000 -11.0140000
   8.3220000  11.2720000  -8.1620000   8.3330000  11.4430000  -7.0850000
   8.2100000  10.2150000  -8.4050000   9.2550000  11.3740000  -8.7170000
   8.8270000  12.3380000 -11.0690000   9.5590000  11.6040000 -10.7320000
   9.2560000  13.2490000 -10.6520000   8.7940000  12.3450000 -12.1590000
   5.4220000  12.3190000  -6.2070000   5.2990000  13.2340000  -6.6170000
   5.1480000  12.2400000  -4.8110000   5.8880000  11.5370000  -4.4280000
   3.7420000  11.7510000  -4.3610000   3.6410000  10.8150000  -3.6090000
   5.5480000  13.5840000  -4.1520000   6.4500000  13.9860000  -4.6140000
   4.7930000  14.3470000  -4.3440000   5.7730000  13.6810000  -2.6130000
   6.5310000  12.9340000  -2.3780000   4.8810000  13.3060000  -2.1120000
   6.0760000  15.1510000  -2.2240000   6.8350000  15.6090000  -2.8580000
   6.4310000  15.2490000  -1.1980000   4.7500000  15.9960000  -2.3380000
   4.4910000  16.1890000  -3.3800000   3.9560000  15.4640000  -1.8130000
   5.0280000  17.2240000  -1.7360000   5.6900000  17.1730000  -0.9740000
   5.3420000  17.9460000  -2.3690000   4.2270000  17.5660000  -1.2250000
   2.6770000  12.3730000  -4.8620000   2.7350000  13.2110000  -5.4230000
   1.3630000  11.8120000  -4.7050000   1.2660000  11.7290000  -3.6220000
   1.1910000  10.3600000  -5.1510000   0.6360000   9.4780000  -4.4240000
   0.1700000  12.7240000  -5.1930000   0.2650000  13.6750000  -4.6680000
  -1.2550000  12.1790000  -4.7780000  -2.0080000  12.9530000  -4.9240000
  -1.7180000  11.4360000  -5.4270000   0.1950000  13.0430000  -6.6990000
   0.6440000  12.2410000  -7.2840000  -0.8010000  13.3740000  -6.9950000
   0.8730000  13.8510000  -6.9740000  -1.4750000  11.8380000  -3.3110000
  -2.4950000  11.4600000  -3.2410000  -1.2930000  12.7070000  -2.6800000
  -0.8100000  11.0570000  -2.9410000   1.8650000   9.9240000  -6.2380000
   2.2760000  10.6350000  -6.8270000   1.7740000   8.5240000  -6.7160000
   0.7110000   8.2890000  -6.7640000   2.5010000   7.4990000  -5.7690000
   2.0800000   6.3940000  -5.4470000   2.3120000   8.5410000  -8.1350000
   1.7590000   9.2850000  -8.7080000   3.3710000   8.7980000  -8.0900000
   2.1710000   7.1880000  -8.8850000   1.1240000   6.5540000  -8.8890000
   3.2630000   6.7210000  -9.4050000   3.3540000   5.7750000  -9.7460000
   4.0620000   7.3240000  -9.2670000   3.6450000   7.9180000  -5.3580000
   3.9650000   8.8080000  -5.7140000   4.5400000   7.2170000  -4.3510000
   4.7480000   6.1800000  -4.6150000   3.8390000   7.0910000  -3.0110000
   3.9890000   6.0430000  -2.3410000   5.8870000   7.9540000  -4.0980000
   6.3500000   7.9370000  -5.0850000   5.6350000   8.9810000  -3.8340000
   6.7860000   7.3590000  -3.0740000   7.3770000   6.0920000  -3.3140000
   7.2640000   5.5700000  -4.2530000   6.9160000   8.0250000  -1.8320000
   6.4280000   8.9590000  -1.5950000   8.0440000   5.4280000  -2.2490000
   8.2590000   4.4170000  -2.5610000   7.6120000   7.3330000  -0.8050000
   7.6870000   7.7170000   0.2010000   8.2080000   6.0540000  -1.0040000
   8.8170000   5.4080000   0.0570000   9.3480000   6.0880000   0.4800000
   3.1660000   8.1180000  -2.5680000   3.1790000   8.9800000  -3.0940000
   2.2920000   8.1610000  -1.3490000   2.8800000   7.7980000  -0.5060000
   1.1550000   7.1120000  -1.5080000   0.8950000   6.2540000  -0.6740000
   1.7060000   9.5650000  -1.0400000   1.0380000   9.9500000  -1.8100000
   2.5370000  10.2510000  -0.8790000   0.8100000   9.6560000   0.2410000
  -0.1050000   9.0720000   0.1440000   1.5750000   9.1790000   1.5210000
   1.6420000   8.0950000   1.6200000   1.1980000   9.5440000   2.4770000
   2.5880000   9.5750000   1.5760000   0.2890000  11.0470000   0.5100000
  -0.0080000  11.0700000   1.5590000   1.0610000  11.7570000   0.2130000
  -0.5770000  11.2110000  -0.1310000   0.5170000   7.1000000  -2.7020000
   0.7300000   7.8570000  -3.3360000  -0.4140000   6.0520000  -3.0950000
  -1.2680000   6.0570000  -2.4180000   0.2990000   4.6220000  -2.9740000
  -0.3610000   3.7150000  -2.4890000  -1.1210000   6.3760000  -4.4530000
  -0.4680000   6.7160000  -5.2560000  -2.1340000   7.4470000  -4.1840000
  -1.6660000   8.2890000  -3.6750000  -2.9240000   7.0740000  -3.5330000
  -1.9870000   5.1320000  -4.9340000  -2.3650000   5.3250000  -5.9380000
  -2.8730000   4.8790000  -4.3520000  -1.3180000   4.2720000  -4.9450000
  -2.8360000   7.9190000  -5.4440000  -3.3640000   8.8290000  -5.1560000
  -3.4830000   7.2310000  -5.9880000  -2.0460000   8.2910000  -6.0960000
   1.5340000   4.3400000  -3.4300000   2.0080000   5.0900000  -3.9130000
   2.0030000   2.9580000  -3.4950000   1.1440000   2.3200000  -3.7010000
   2.5140000   2.4080000  -2.1470000   2.2500000   1.2570000  -1.7370000
   3.1580000   2.6290000  -4.4960000   3.4400000   1.5800000  -4.4040000
   3.9870000   3.2900000  -4.2410000   2.5680000   2.8060000  -5.8760000
   1.3990000   2.5130000  -6.1790000   3.4450000   3.1820000  -6.8130000
   4.2220000   3.7200000  -6.4580000   3.1790000   3.4050000  -7.7610000
   3.2070000   3.2680000  -1.4100000   3.1710000   4.2360000  -1.6950000
   3.4730000   3.1460000   0.0740000   4.1620000   2.3260000   0.2760000
   2.2130000   2.6710000   0.7840000   2.2350000   1.7650000   1.6430000
   3.9610000   4.4990000   0.6200000   4.6740000   4.8860000  -0.1080000
   3.1440000   5.2190000   0.6610000   4.6570000   4.5090000   1.9920000
   5.4230000   3.7330000   1.9760000   3.9010000   4.3150000   2.7530000
   5.3610000   5.8400000   2.2350000   4.7880000   6.6880000   1.8600000
   6.3440000   5.8670000   1.7630000   5.5120000   5.9640000   3.7870000
   4.5800000   5.6970000   4.2850000   6.1810000   5.1540000   4.0740000
   6.1170000   7.2110000   4.1820000   5.5450000   7.9990000   3.9130000
   6.2410000   7.2460000   5.1840000   7.0640000   7.2790000   3.8360000
   1.0380000   3.2450000   0.4670000   1.0470000   3.9950000  -0.2100000
  -0.2720000   2.8560000   1.0750000  -0.1120000   2.8720000   2.1530000
  -0.7060000   1.5090000   0.5600000  -0.9590000   0.5340000   1.2310000
  -1.3760000   3.8530000   0.8150000  -2.3510000   3.3700000   0.8790000
  -1.3830000   4.1970000  -0.2190000  -1.2290000   5.0640000   1.7150000
  -0.2120000   5.4510000   1.6660000  -1.3510000   4.7050000   2.7370000
  -2.2680000   6.2560000   1.3750000  -2.2780000   6.2640000   0.2850000
  -3.2820000   6.0230000   1.7020000  -2.0480000   7.6270000   2.0330000
  -2.8340000   8.2960000   1.6820000  -1.1270000   8.0620000   1.6460000
  -2.0420000   7.4490000   3.4750000  -1.1540000   7.1340000   3.8410000
  -2.2200000   8.3230000   3.9480000  -2.7520000   6.7900000   3.7600000
  -0.8270000   1.3270000  -0.7760000  -0.6090000   2.0840000  -1.4080000
  -1.2570000   0.0900000  -1.3590000  -2.3030000  -0.1520000  -1.1700000
  -0.4300000  -1.0730000  -0.8650000  -0.9550000  -2.1540000  -0.6260000
  -1.1750000   0.2980000  -2.8870000  -1.3380000  -0.7180000  -3.2480000
  -0.1950000   0.6850000  -3.1690000  -2.2900000   1.1420000  -3.4990000
  -3.2290000   0.7320000  -3.1250000  -2.3000000   2.1100000  -2.9990000
  -2.2790000   1.2120000  -5.0120000  -3.0790000   1.8980000  -5.2930000
  -1.3590000   1.6510000  -5.3980000  -2.6020000  -0.1240000  -5.6590000
  -3.5550000  -0.4640000  -5.2540000  -1.8570000  -0.8300000  -5.2930000
  -2.6120000  -0.1200000  -7.1580000  -3.1900000   0.6040000  -7.5610000
  -1.7140000   0.0930000  -7.5690000  -2.9010000  -1.0300000  -7.4870000
   0.8540000  -0.9400000  -0.6150000   1.3600000  -0.0830000  -0.7900000
   1.6770000  -1.9210000  -0.0100000   1.3760000  -2.8590000  -0.4760000
   1.3880000  -2.1990000   1.4650000   1.1960000  -3.2990000   1.8850000
   3.1780000  -1.6260000  -0.3170000   3.4570000  -0.6070000  -0.0480000
   3.8140000  -2.2820000   0.2770000   3.5060000  -1.9170000  -1.7860000
   3.2480000  -3.2080000  -2.3320000   2.7110000  -3.9330000  -1.7380000
   4.2160000  -1.0350000  -2.6020000   4.3880000  -0.0260000  -2.2560000
   3.6630000  -3.5540000  -3.6180000   3.5180000  -4.5620000  -3.9790000
   4.6640000  -1.4080000  -3.8800000   5.3560000  -0.7690000  -4.4090000
   4.4270000  -2.6720000  -4.4220000   4.8510000  -2.9670000  -5.3710000
   1.1610000  -1.1770000   2.2710000   1.4140000  -0.2440000   1.9770000
   0.7830000  -1.2380000   3.7410000   1.4470000  -1.9390000   4.2460000
  -0.6120000  -1.8140000   3.8520000  -0.8160000  -2.6720000   4.7680000
   0.8640000   0.1530000   4.3260000   1.8470000   0.5310000   4.0450000
   0.1130000   0.7470000   3.8060000   0.7960000   0.0960000   5.8670000
   1.4860000  -0.6590000   6.2440000  -0.2250000  -0.1540000   6.1570000
   0.9650000   1.5390000   6.4660000   1.9830000   1.8040000   6.1800000
   0.2150000   2.1870000   6.0120000   0.7760000   1.4280000   7.9780000
   1.5450000   0.7960000   8.4230000  -0.1680000   0.9530000   8.2480000
   0.8450000   2.7850000   8.5490000   0.6680000   2.7610000   9.5430000
   1.7210000   3.2560000   8.3750000   0.1000000   3.3470000   8.1600000
  -1.5530000  -1.6380000   2.8960000  -1.3350000  -0.9530000   2.1870000
  -2.8570000  -2.4960000   2.8110000  -3.3330000  -2.3940000   3.7860000
  -2.5720000  -3.9880000   2.3870000  -3.2320000  -4.8710000   2.8960000
  -3.8460000  -1.8850000   1.7310000  -3.4100000  -1.8660000   0.7320000
  -4.2350000  -0.4410000   2.0200000  -4.9550000  -0.3530000   2.8330000
  -3.3050000   0.1050000   2.1790000  -5.0670000  -2.6950000   1.5220000
  -5.7470000  -2.7840000   2.3700000  -5.6600000  -2.2000000   0.7530000
  -4.7030000  -3.6380000   1.1170000  -4.8540000   0.4060000   0.8800000
  -5.8880000   0.1290000   0.6740000  -4.8270000   1.4640000   1.1390000
  -4.3220000   0.3030000  -0.0660000  -1.4910000  -4.2560000   1.5680000
  -0.8010000  -3.5440000   1.3740000  -1.2550000  -5.6490000   1.1480000
  -2.2740000  -6.0170000   1.0270000  -0.5610000  -6.4090000   2.2540000
  -0.9610000  -7.5300000   2.5530000  -0.5010000  -5.6130000  -0.1840000
  -1.1360000  -5.1720000  -0.9520000   0.1850000  -4.8110000   0.0870000
  -0.0300000  -6.9510000  -0.7170000   0.5910000  -7.5290000  -0.0320000
  -1.1900000  -7.8870000  -1.1180000  -1.7940000  -8.1360000  -0.2450000
  -0.7640000  -8.8130000  -1.5040000  -1.7980000  -7.4340000  -1.9010000
   0.7630000  -6.6660000  -2.0060000   0.1830000  -6.1640000  -2.7810000
   1.1110000  -7.5990000  -2.4480000   1.6090000  -6.0180000  -1.7790000
   0.2780000  -5.7870000   3.0630000   0.6630000  -4.9400000   2.6700000
   0.7680000  -6.2670000   4.4220000   1.3140000  -7.1730000   4.1630000
  -0.3590000  -6.8150000   5.3000000  -0.2690000  -7.9250000   5.8370000
   1.5750000  -5.2360000   5.0710000   2.4240000  -4.9250000   4.4630000
   1.0280000  -4.3000000   5.1860000   2.1730000  -5.7240000   6.3540000
   2.9250000  -6.4530000   6.0530000   1.3930000  -6.1920000   6.9560000
   2.8790000  -4.5710000   7.0490000   3.1810000  -3.7070000   6.4570000
   2.1750000  -4.1610000   7.7740000   4.0910000  -5.1550000   7.7790000
   3.9030000  -6.1200000   8.2480000   4.8240000  -5.4420000   7.0260000
   4.6500000  -4.1400000   8.7090000   5.3460000  -4.6610000   9.2240000
   5.1990000  -3.4070000   8.2830000   3.9530000  -3.7760000   9.3420000
  -1.4080000  -6.0200000   5.5810000  -1.4210000  -5.1690000   5.0370000
  -2.4490000  -6.3540000   6.5040000  -2.0740000  -6.8650000   7.3900000
  -3.4040000  -7.3540000   5.8360000  -3.7240000  -8.2800000   6.5570000
  -3.2630000  -5.1710000   7.0960000  -3.8000000  -4.7350000   6.2540000
  -2.4130000  -4.1300000   7.7630000  -1.8210000  -3.6250000   7.0000000
  -3.0440000  -3.3670000   8.2180000  -4.3850000  -5.4470000   8.1370000
  -3.9440000  -6.0120000   8.9580000  -5.1630000  -6.0720000   7.7010000
  -4.7840000  -4.4910000   8.4780000  -1.3720000  -4.7290000   8.7910000
  -0.7610000  -3.8960000   9.1390000  -1.8650000  -5.1610000   9.6630000
  -0.6370000  -5.4420000   8.4180000  -3.7360000  -7.3350000   4.5550000
  -3.2790000  -6.5620000   4.0920000  -4.3620000  -8.4060000   3.8110000
  -5.3570000  -8.4790000   4.2490000  -3.6260000  -9.7510000   3.9750000
  -4.2550000 -10.6830000   4.4400000  -4.5320000  -8.0840000   2.3220000
  -4.9000000  -7.0580000   2.2880000  -3.5380000  -8.0940000   1.8740000
  -5.4820000  -9.0210000   1.5240000  -6.8610000  -9.0060000   1.5920000
  -7.4350000  -8.3490000   2.2300000  -5.1740000 -10.1790000   0.7430000
  -7.4470000 -10.0390000   0.8540000  -8.4360000 -10.2460000   0.8500000
  -6.4080000 -10.7760000   0.3330000  -4.0010000 -10.8690000   0.3430000
  -3.0060000 -10.4720000   0.4760000  -6.4490000 -11.9680000  -0.3820000
  -7.3320000 -12.5060000  -0.6940000  -4.0740000 -11.9140000  -0.5670000
  -3.1570000 -12.3420000  -0.9440000  -5.2680000 -12.5340000  -0.8290000
  -5.3360000 -13.4120000  -1.4550000  -2.2950000  -9.8150000   3.7060000
  -1.8670000  -8.9180000   3.5290000  -1.4660000 -11.0010000   3.8930000
  -2.0240000 -11.8110000   3.4240000  -1.2330000 -11.5230000   5.3690000
  -1.1600000 -12.7180000   5.5310000  -0.0930000 -10.7170000   3.2010000
   0.6170000 -11.4880000   3.5000000   0.2410000  -9.7150000   3.4710000
  -0.1170000 -10.7640000   1.6580000  -0.9380000 -10.1750000   1.2510000
  -0.3480000 -12.1960000   1.2160000  -1.3770000 -12.4940000   1.4160000
  -0.2420000 -12.2580000   0.1330000   0.4600000 -12.7950000   1.6360000
   1.2200000 -10.3820000   1.0860000   1.2740000 -10.3950000  -0.0030000
   1.9920000 -11.0080000   1.5350000   1.3160000  -9.3190000   1.3070000
  -1.2420000 -10.7240000   6.4390000  -1.2440000  -9.7400000   6.2150000
  -1.2770000 -11.0630000   7.8240000  -0.5680000 -11.8820000   7.9460000
  -2.6100000 -11.6270000   8.2640000  -2.6430000 -12.4920000   9.1570000
  -0.9720000  -9.9300000   8.7810000  -1.5120000  -9.0580000   8.4120000
  -1.2030000 -10.1660000   9.8200000   0.5520000  -9.5640000   8.8100000
   0.9030000  -9.6140000   7.7800000   1.4460000 -10.4700000   9.5750000
   1.3940000 -10.3050000  10.6510000   1.2230000 -11.5030000   9.3090000
   2.4780000 -10.2570000   9.2950000   0.8070000  -8.1310000   9.2560000
   0.5280000  -8.0850000  10.3090000   0.0670000  -7.5060000   8.7580000
   1.8220000  -7.8100000   9.0250000  -3.7730000 -11.1340000   7.7690000
  -3.6770000 -10.3470000   7.1430000  -5.1050000 -11.7310000   8.1240000
  -5.0740000 -11.7460000   9.2130000  -5.2600000 -13.1620000   7.5040000
  -5.6420000 -14.1680000   8.0890000  -6.1480000 -10.7480000   7.6420000
  -7.1280000 -11.2250000   7.6660000  -5.8700000 -10.4910000   6.6200000
  -6.3370000  -9.4970000   8.5720000  -5.3560000  -9.0940000   8.8260000
  -6.8590000  -8.7610000   7.9610000  -7.1770000  -9.7210000   9.7900000
  -7.9540000  -8.8470000  10.2550000  -7.0500000 -10.8340000  10.3030000
  -4.8590000 -13.1750000   6.2350000  -4.4470000 -12.3840000   5.7610000
  -4.8210000 -14.3770000   5.4220000  -5.7990000 -14.8580000   5.4020000
  -3.8880000 -15.4770000   6.0180000  -4.1960000 -16.6880000   6.1100000
  -4.3150000 -14.0320000   4.0210000  -3.4420000 -13.3830000   4.0940000
  -5.3030000 -13.2320000   3.1980000  -5.6450000 -12.4200000   3.8410000
  -4.7460000 -12.8820000   2.3290000  -3.8530000 -15.1820000   3.1350000
  -3.3990000 -14.7880000   2.2250000  -3.0510000 -15.7600000   3.5940000
  -4.6660000 -15.8430000   2.8360000  -6.5770000 -13.9900000   2.6200000
  -6.3310000 -14.4770000   1.6770000  -7.3060000 -13.2340000   2.3290000
  -7.0840000 -14.6960000   3.2780000  -2.8460000 -15.0010000   6.7180000
  -2.6590000 -14.0090000   6.7000000  -1.9190000 -15.9050000   7.4250000
  -1.6070000 -16.7560000   6.8200000  -2.5430000 -16.4530000   8.7260000
  -2.4780000 -17.6740000   8.9150000  -0.6160000 -15.2330000   7.7920000
  -0.0940000 -15.8540000   8.5200000  -0.8180000 -14.2620000   8.2450000
   0.1040000 -15.1010000   6.5990000  -0.2110000 -14.3480000   6.0950000
  -3.1980000 -15.6540000   9.4190000  -3.1650000 -14.7040000   9.0760000
  -4.1000000 -15.9900000  10.5380000  -3.4420000 -16.4500000  11.2750000
  -5.1720000 -16.9520000  10.1910000  -5.4010000 -17.9080000  10.9050000
  -4.7220000 -14.7100000  11.2560000  -3.8860000 -14.1390000  11.6580000
  -5.1350000 -14.0780000  10.4690000  -5.7980000 -15.0910000  12.2610000
  -5.4770000 -15.7660000  13.4420000  -4.4440000 -15.9340000  13.7100000
  -7.1200000 -14.8010000  11.9630000  -7.3790000 -14.2690000  11.0590000
  -6.5300000 -16.2450000  14.2610000  -6.3190000 -16.8030000  15.1610000
  -8.1310000 -15.1190000  12.8650000  -9.1550000 -14.9030000  12.5980000
  -7.7790000 -15.7930000  14.0330000  -8.5140000 -15.9200000  14.8150000
  -5.8160000 -16.7630000   9.0370000  -5.6300000 -15.9610000   8.4520000
  -6.8330000 -17.6650000   8.5150000  -7.5670000 -17.8630000   9.2960000
  -6.4560000 -19.0460000   7.9870000  -7.1890000 -20.0180000   8.1810000
  -7.5950000 -16.9460000   7.4120000  -8.1090000 -17.6390000   6.7460000
  -7.0070000 -16.2680000   6.7940000  -8.5950000 -15.9220000   7.9740000
  -8.2060000 -15.3820000   8.8380000  -9.8810000 -16.5170000   8.4840000
 -10.5600000 -16.4920000   7.6320000  -9.7880000 -17.5240000   8.8900000
 -10.1860000 -15.7700000   9.2170000  -8.8250000 -14.7870000   7.0120000
  -9.6760000 -14.1760000   7.3140000  -7.9760000 -14.1120000   6.9070000
  -8.9030000 -15.2220000   6.0160000  -5.2840000 -19.1620000   7.3810000
  -4.8820000 -18.2700000   7.1290000  -4.5760000 -20.3980000   7.0360000
  -5.2710000 -20.9620000   6.4140000  -4.1690000 -21.1400000   8.2900000
  -3.9790000 -22.3450000   8.2010000  -3.2950000 -20.2270000   6.1810000
  -2.6440000 -21.0960000   6.0880000  -2.7370000 -19.4130000   6.6460000
  -3.4520000 -19.7110000   4.7330000  -4.4360000 -20.0370000   3.8210000
  -5.2180000 -20.7650000   3.9760000  -2.5910000 -18.7740000   3.9750000
  -4.1970000 -19.3980000   2.6570000  -4.8350000 -19.4520000   1.8760000
  -3.0350000 -18.6320000   2.6470000  -1.3080000 -18.1420000   4.2810000
  -0.7830000 -18.3150000   5.2090000  -2.3600000 -17.8460000   1.7130000
  -2.8710000 -17.7950000   0.7630000  -0.6670000 -17.3420000   3.3180000
   0.2420000 -16.8310000   3.6000000  -1.1140000 -17.2440000   1.9620000
  -0.6400000 -16.6810000   1.1710000  -3.8280000 -20.4390000   9.3950000
  -3.8120000 -19.4300000   9.3460000  -3.1650000 -20.9430000  10.6330000
  -2.4490000 -21.7010000  10.3150000  -4.2550000 -21.5100000  11.5710000
  -3.8660000 -22.2640000  12.3830000  -2.4010000 -19.9210000  11.4440000
  -1.7310000 -19.3220000  10.8290000  -3.1190000 -19.2190000  11.8690000
  -1.5770000 -20.4510000  12.4810000  -2.1190000 -20.5050000  13.2720000
  -5.5600000 -21.1620000  11.4250000  -5.8070000 -20.6190000  10.6100000
  -6.5740000 -21.5290000  12.3580000  -6.1630000 -21.9680000  13.2680000
  -7.4950000 -22.4760000  11.6460000  -8.6690000 -22.0560000  11.3900000
  -7.3220000 -20.3440000  12.9580000  -7.7260000 -20.7520000  13.8850000
  -8.1630000 -20.1020000  12.3080000  -6.4990000 -19.2050000  13.1060000
  -6.4840000 -18.5610000  12.3940000  -7.0480000 -23.5980000  11.2660000
  -7.0060000  -5.0140000   5.6090000  -7.3650000  -3.6580000   5.0610000
  -7.7350000  -3.7100000   3.6390000  -8.0710000  -2.3980000   3.0310000
  -8.4380000  -2.4570000   1.5640000  -9.0840000  -1.1720000   1.0750000
  -8.0390000  -0.0420000   1.0650000  -7.2770000  -2.6040000   0.8020000
  -6.9840000  -3.7780000   0.2190000  -7.6800000  -4.7560000   0.3650000
  -5.7430000  -3.6870000  -0.5850000  -5.2430000  -4.8210000  -1.2100000
  -4.0290000  -4.7680000  -2.0110000  -3.0080000  -3.8750000  -1.7200000
  -1.8690000  -3.8100000  -2.4910000  -1.7170000  -4.6400000  -3.5780000
  -0.6210000  -4.6230000  -4.4000000   0.5140000  -3.8690000  -4.0120000
  -2.7430000  -5.5490000  -3.8710000  -3.8740000  -5.6170000  -3.0870000
  -7.0151774  -4.9793356   6.7084154  -7.7385313  -5.7564277   5.2594302
  -6.0020669  -5.2967001   5.2594302  -8.2155511  -3.2592171   5.6333067
  -6.4792842  -3.0124229   5.1544760  -6.8889070  -4.1380817   3.0814404
  -8.6488054  -4.3195514   3.5806315  -8.9240001  -1.9737679   3.5809254
  -7.1625062  -1.7816267   3.0997238  -9.1380090  -3.2983768   1.4541254
  -9.4718073  -1.3214131   0.0565300  -9.9112458  -0.8995371   1.7468841
  -7.7854832   0.2321378   2.0996872  -7.1329409  -0.3850777   0.5440830
  -8.4517418   0.8345214   0.5440830  -5.2199250  -2.7246377  -0.6862487
  -5.7742395  -5.7776603  -1.0978140  -3.1105993  -3.2041215  -0.8543237
  -1.0764575  -3.0908365  -2.2366768   0.5711640  -3.8310250  -2.9141429
   1.4230114  -4.3433950  -4.4103060   0.4290440  -2.8471709  -4.4103060
  -2.6438331  -6.2174056  -4.7389861  -4.6578336  -6.3525764  -3.3205215
