
  315  0.0000000e+00
 -11.4030000   3.4720000  -0.2680000 -11.0930000   2.5740000   0.0750000
 -12.0440000   3.3670000  -1.0420000 -11.8310000   4.0130000   0.4700000
 -10.2950000   4.2550000  -0.8780000 -10.6030000   5.2720000  -1.1190000
  -9.8290000   3.7210000  -2.1950000 -10.1630000   2.5900000  -2.5790000
  -9.0910000   4.4590000   0.0650000  -8.5230000   3.5350000   0.1720000
  -8.3470000   5.1500000  -0.3300000  -9.4130000   4.9470000   1.4410000
  -9.5520000   6.3630000   1.6760000  -9.2430000   7.0420000   0.8950000
  -9.5160000   4.0010000   2.4640000  -9.2270000   2.9740000   2.2910000
  -9.7670000   6.7910000   2.9840000  -9.5400000   7.8190000   3.2250000
  -9.8510000   4.4760000   3.7300000  -9.9920000   3.7350000   4.5030000
  -9.9890000   5.8550000   4.0290000 -10.0840000   6.2690000   5.0220000
  -9.0030000   4.5460000  -2.8830000  -8.8310000   5.5040000  -2.6160000
  -8.1110000   4.1120000  -3.9150000  -8.6050000   3.2110000  -4.2790000
  -8.0370000   4.9610000  -4.5940000  -6.6220000   3.9150000  -3.2590000
  -6.6940000   3.6990000  -1.9970000  -5.5760000   3.9950000  -4.0540000
  -5.7930000   3.9610000  -5.0400000  -4.1450000   3.9630000  -3.7000000
  -3.9780000   2.9710000  -3.2800000  -3.6920000   4.9730000  -2.6520000
  -4.3320000   6.0260000  -2.4210000  -3.3650000   4.0540000  -4.9330000
  -3.6430000   4.9360000  -5.5100000  -2.2900000   4.1730000  -4.7950000
  -3.6430000   2.8040000  -5.8210000  -3.1410000   1.9990000  -5.2840000
  -4.7010000   2.6900000  -6.0600000  -2.8090000   2.9370000  -7.0660000
  -3.0220000   3.7790000  -7.7250000  -1.8280000   3.2330000  -6.6950000
  -2.8720000   1.7520000  -7.8970000  -3.6400000   1.5330000  -8.5150000
  -2.1240000   0.7260000  -7.6120000  -1.1280000   0.6300000  -6.8020000
  -0.6920000   1.4770000  -6.4660000  -0.7120000  -0.2550000  -6.5480000
  -2.3050000  -0.3840000  -8.2340000  -3.1010000  -0.5380000  -8.8370000
  -1.6600000  -1.1440000  -8.0710000  -2.6570000   4.6550000  -1.9150000
  -2.1420000   3.7900000  -2.0000000  -2.0490000   5.5220000  -0.8970000
  -1.4540000   6.2620000  -1.4320000  -2.7870000   6.1160000  -0.3580000
  -1.2910000   4.8240000   0.2190000  -0.6280000   3.7770000   0.0170000
  -1.2360000   5.4530000   1.3690000  -1.9800000   6.1290000   1.4700000
  -0.5920000   4.9760000   2.5720000   0.2040000   4.2680000   2.3440000
  -1.5160000   4.1120000   3.3890000  -1.9680000   4.3510000   4.5120000
  -0.0190000   6.1840000   3.3660000   0.5720000   5.8070000   4.2010000
  -0.7950000   6.8190000   3.7920000   0.8440000   7.0890000   2.5040000
   0.2590000   7.6990000   1.8160000   1.4720000   6.4570000   1.8760000
   1.6580000   7.8500000   3.5220000   0.9750000   8.2710000   4.2600000
   2.3720000   7.1870000   4.0100000   2.5880000   9.0020000   3.0000000
   3.3460000   8.4530000   2.4420000   2.0470000   9.7520000   2.4230000
   3.2410000   9.6400000   4.2060000   3.5490000   8.9930000   4.9170000
   4.0980000  10.1360000   4.0060000   2.6060000  10.3000000   4.6300000
  -1.8190000   2.9440000   2.7760000  -1.7640000   2.8090000   1.7770000
  -2.1680000   1.7000000   3.5170000  -3.1440000   1.8090000   3.9890000
  -1.5050000   1.5010000   4.3590000  -2.1780000   0.5130000   2.6030000
  -1.8030000   0.6040000   1.4540000  -2.6230000  -0.5980000   3.1610000
  -2.9720000  -0.5110000   4.1050000  -2.7980000  -1.8610000   2.4120000
  -3.7150000  -2.3440000   2.7480000  -2.9760000  -1.6880000   1.3510000
  -1.6590000  -2.7900000   2.6920000  -1.3290000  -3.1050000   3.8540000
  -1.0150000  -3.1550000   1.5750000  -1.3980000  -2.8800000   0.6810000
   0.3740000  -3.4860000   1.5180000   0.9660000  -3.1410000   2.3650000
   0.7940000  -3.0390000   0.6170000   0.6080000  -5.0400000   1.3180000
  -0.3140000  -5.7780000   1.3700000   1.8070000  -5.4140000   0.9180000
   2.4790000  -4.6740000   1.0680000   2.2770000  -6.7260000   0.7650000
   1.8450000  -7.3880000   1.5160000   3.8290000  -6.7000000   0.8920000
   4.3850000  -7.5080000   1.6640000   1.8570000  -7.3210000  -0.6270000
   0.7980000  -7.1020000  -0.7620000   2.5040000  -6.8530000  -1.3690000
   1.9080000  -8.8370000  -0.6290000   2.1670000  -9.4900000   0.3820000
   1.6520000  -9.4600000  -1.6890000   4.5510000  -5.7650000   0.1880000
   4.0970000  -4.9480000  -0.1950000   5.9910000  -5.6820000   0.1600000
   6.3700000  -6.0760000  -0.7830000   6.4170000  -6.3010000   0.9500000
   6.5580000  -4.3130000   0.5450000   6.2650000  -3.3050000  -0.0040000
   7.5360000  -4.3030000   1.5080000   7.9390000  -5.2040000   1.7190000
   7.6580000  -3.3120000   2.6180000   6.6180000  -3.1470000   2.9010000
   8.1190000  -1.8430000   2.2400000   8.3300000  -0.9940000   3.1020000
   8.3490000  -3.9490000   3.8300000   8.3360000  -3.2950000   4.7020000
   9.4270000  -3.9620000   3.6720000   7.7420000  -5.3470000   4.2610000
   6.6660000  -5.3640000   4.4360000   8.1350000  -5.5000000   5.2660000
   8.1230000  -6.6360000   3.4280000   7.8670000  -7.8010000   3.8450000
   8.8020000  -6.5720000   2.3540000   8.1600000  -1.4080000   0.9710000
   8.0770000  -2.1070000   0.2460000   8.2070000   0.0210000   0.5380000
   9.1780000   0.3460000   0.1630000   8.0900000   0.7010000   1.3820000
   7.1780000   0.3310000  -0.5370000   6.0190000  -0.1050000  -0.6100000
   7.5250000   1.1740000  -1.5020000   8.4970000   1.4460000  -1.4860000
   6.6510000   1.8990000  -2.4570000   5.7850000   2.3800000  -2.0030000
   6.2010000   0.9700000  -3.5520000   7.0350000   0.4130000  -4.2660000
   7.5550000   3.0310000  -3.0820000   8.4650000   2.6010000  -3.4990000
   7.9790000   4.0700000  -2.0320000   7.2410000   3.9440000  -1.2390000
   7.9400000   5.0730000  -2.4570000   6.8150000   3.7830000  -4.2140000
   7.2610000   4.7370000  -4.4930000   5.8020000   4.0640000  -3.9270000
   6.7530000   3.1950000  -5.1300000   9.3720000   3.7960000  -1.4390000
   9.9240000   3.0350000  -1.9900000  10.0360000   4.6450000  -1.2770000
   9.2470000   3.2590000  -0.4980000   4.8720000   0.9150000  -3.7670000
   4.2330000   1.4260000  -3.1750000   4.3220000  -0.0240000  -4.8120000
   5.1080000  -0.2420000  -5.5350000   3.4720000   0.5020000  -5.2460000
   3.9580000  -1.4300000  -4.3260000   4.0580000  -2.4160000  -5.0630000
   3.5590000  -1.5740000  -3.0650000   3.3570000  -0.7630000  -2.4970000
   3.1270000  -2.8340000  -2.5030000   3.3150000  -3.6680000  -3.1790000
   3.6460000  -3.0250000  -1.5640000   1.6300000  -2.8560000  -2.1610000
   1.1790000  -1.8180000  -1.6150000   0.9120000  -3.8320000  -2.7320000
   1.4610000  -4.5410000  -3.1950000  -0.4900000  -3.9530000  -3.1550000
  -0.7140000  -4.8870000  -3.6700000  -0.6790000  -3.0870000  -3.7900000
  -1.4700000  -3.9480000  -1.9890000  -1.5710000  -2.9550000  -1.2060000
  -2.1260000  -5.0110000  -1.8360000  -1.7830000  -5.7780000  -2.3960000
  -3.1570000  -5.3340000  -0.7700000  -2.9300000  -4.9500000   0.2250000
  -3.1860000  -6.9180000  -0.6580000  -4.0090000  -7.6990000  -1.1840000
  -4.5170000  -4.6910000  -1.1110000  -4.3190000  -4.1710000  -2.0490000
  -5.2100000  -5.5200000  -1.2550000  -5.1730000  -3.6610000  -0.1380000
  -4.5230000  -2.8060000   0.0460000  -5.6690000  -4.2030000   1.1900000
  -5.8560000  -3.3890000   1.8910000  -4.8300000  -4.7350000   1.6400000
  -6.4700000  -4.9400000   1.1400000  -6.3740000  -3.0290000  -0.7980000
  -6.1010000  -2.7050000  -1.8020000  -7.0830000  -3.8190000  -1.0440000
  -6.7990000  -2.1760000  -0.2690000  -2.2340000  -7.4450000   0.1870000
  -1.4930000  -6.8410000   0.5130000  -2.1500000  -8.9210000   0.3900000
  -1.8170000  -9.3420000  -0.5590000  -3.1760000  -9.2210000   0.6010000
  -1.2070000  -9.4280000   1.4420000  -1.1080000 -10.6570000   1.6150000
  -0.4300000  -8.5550000   2.1130000  -0.5160000  -7.5570000   1.9820000
   0.5210000  -9.1100000   3.0860000   0.0130000  -9.6220000   3.9030000
   1.2350000  -9.7900000   2.6210000   1.3030000  -8.0280000   3.8970000
   0.8020000  -6.9300000   4.0940000   2.5300000  -8.3010000   4.2750000
   2.9190000  -9.1630000   3.9210000   3.2150000  -7.6380000   5.3510000
   2.7300000  -7.9120000   6.2880000   3.0790000  -6.0900000   5.4420000
   2.9790000  -5.5200000   6.5490000   4.6860000  -8.0670000   5.4590000
   4.9680000  -7.5480000   6.3760000   5.3020000  -7.7500000   4.6170000
   4.6700000  -9.4930000   5.5970000   5.4860000  -9.7350000   5.1540000
   3.2420000  -5.4620000   4.3100000   3.0930000  -5.9320000   3.4290000
   3.3550000  -4.0190000   4.3180000   2.3560000  -3.6510000   4.5560000
   4.0250000  -3.7220000   5.1250000   3.8170000  -3.2200000   3.1160000
   3.8540000  -3.8090000   2.0230000   4.1380000  -1.9400000   3.2720000
   4.1610000  -1.6180000   4.2290000   4.4640000  -0.9470000   2.1470000
   4.9270000  -1.4940000   1.3260000   5.0910000  -0.1880000   2.6150000
   3.1610000  -0.2570000   1.6800000   2.0600000  -0.6030000   2.1710000
   3.3370000   0.7200000   0.7690000   4.2560000   0.8130000   0.3590000
   2.2800000   1.6180000   0.3460000   1.3580000   1.2890000   0.8270000
   1.9110000   1.5180000  -1.1310000   2.8140000   1.6230000  -1.9410000
   2.5220000   3.0740000   0.6860000   1.5930000   3.6400000   0.6220000
   3.2560000   3.4500000  -0.0270000   3.0280000   3.3070000   1.9960000
   4.1030000   4.0870000   2.1970000   4.7040000   4.5370000   1.4210000
   2.4020000   2.9810000   3.2740000   4.0540000   4.4630000   3.5110000
   4.6870000   5.1270000   3.9350000   3.1180000   3.6950000   4.2700000
   1.3290000   2.1170000   3.6690000   0.8320000   1.5850000   2.8710000
   2.8470000   3.5690000   5.5970000   3.3930000   4.1580000   6.3190000
   1.0620000   1.9430000   5.0750000   0.3330000   1.2560000   5.4780000
   1.7900000   2.7620000   6.0300000   1.4500000   2.6870000   7.0520000
   0.6100000   1.4300000  -1.5020000  -0.0780000   1.6060000  -0.7840000
   0.2060000   1.0520000  -2.8490000  -0.8510000   0.8050000  -2.7440000
   0.9440000   0.3930000  -3.3060000   0.1650000   2.2680000  -3.7980000
  -0.7600000   2.3100000  -4.5840000   1.2340000   3.0570000  -3.9740000
   1.9420000   2.9050000  -3.2690000   1.4920000   4.3160000  -4.7940000
   0.7720000   5.0880000  -4.5220000   1.3420000   3.9630000  -6.3350000
   0.6420000   4.6840000  -7.0440000   2.9310000   4.7660000  -4.6060000
   3.0780000   5.0810000  -3.5730000   3.5920000   3.9050000  -4.7020000
   3.3880000   6.0240000  -5.4360000   4.5440000   5.9910000  -5.8190000
   2.6570000   7.0020000  -5.6880000   2.0090000   3.0880000  -6.8500000
  -1.7790000  -3.8970000  -6.1860000  -1.2290000  -2.7130000  -5.6730000
  -1.9200000  -2.1200000  -4.6570000  -1.3000000  -1.9770000  -3.4700000
  -1.9200000  -1.3480000  -2.4410000  -3.1900000  -0.8330000  -2.5620000
  -3.7360000  -0.1260000  -1.3770000  -2.9750000   0.5290000  -0.6730000
  -5.1200000  -0.1740000  -0.9320000  -6.0120000  -1.1220000  -1.3650000
  -7.2980000  -1.1510000  -0.9080000  -7.7190000  -0.2240000   0.0140000
  -6.8390000   0.7340000   0.4670000  -5.5470000   0.7660000   0.0010000
  -3.8490000  -0.9620000  -3.8040000  -5.0490000  -0.4830000  -3.9840000
  -3.1920000  -1.6180000  -4.8420000  -2.0825630  -4.5504883  -5.3548547
  -2.6574268  -3.6561277  -6.8027226  -1.0283259  -4.4128891  -6.8027226
  -0.2829538  -2.3734441  -3.3341727  -1.3919905  -1.2465558  -1.4813568
  -5.6838386  -1.8752248  -2.0964113  -7.9964994  -1.9160794  -1.2777999
  -8.7530421  -0.2465282   0.3884988  -7.1725470   1.4774788   1.2059084
  -4.8498856   1.5348757   0.3655020  -5.4953385  -0.5829912  -4.8619998
  -3.6901688  -1.7367413  -5.8155134
