
  371  0.0000000e+00
   7.2930000  -3.6270000  -7.5350000   6.9820000  -3.5920000  -8.4950000
   8.0850000  -3.0080000  -7.4350000   7.5520000  -4.5990000  -7.4500000
   6.2120000  -3.4060000  -6.5170000   5.5430000  -4.2460000  -6.7070000
   5.5040000  -2.1040000  -6.8780000   6.1600000  -1.2480000  -7.5130000
   6.7900000  -3.3150000  -5.1270000   6.0290000  -2.9580000  -4.4320000
   7.6340000  -2.6270000  -5.1590000   7.2420000  -4.7110000  -4.5980000
   8.0090000  -4.4950000  -3.8540000   7.7720000  -5.2830000  -5.3590000
   6.1200000  -5.5310000  -4.0020000   5.2220000  -5.5670000  -4.6190000
   6.5010000  -6.5420000  -3.8580000   5.6190000  -5.1010000  -2.7050000
   4.7810000  -4.5390000  -2.6720000   6.1210000  -5.4060000  -1.5060000
   7.0460000  -6.2580000  -1.3060000   7.3460000  -6.4780000  -0.3680000
   7.6240000  -6.5940000  -2.0630000   5.6700000  -4.6980000  -0.5500000
   5.9000000  -4.9580000   0.3980000   5.0590000  -3.9070000  -0.6910000
   4.2240000  -1.8850000  -6.4310000   3.8550000  -2.6170000  -5.8410000
   3.5230000  -0.6500000  -6.5470000   2.4600000  -0.8590000  -6.4290000
   3.6960000  -0.3220000  -7.5720000   3.9380000   0.3830000  -5.4600000
   4.5390000   0.0110000  -4.4530000   3.5090000   1.6460000  -5.6810000
   3.0950000   1.8000000  -6.5890000   3.4670000   2.7160000  -4.7440000
   4.4740000   2.8300000  -4.3420000   2.4370000   2.5710000  -3.6350000
   1.2350000   2.3740000  -3.8930000   3.2720000   3.9730000  -5.5400000
   2.2340000   4.0350000  -5.8660000   3.8140000   3.8930000  -6.4820000
   3.7240000   5.1920000  -4.7500000   3.2570000   5.2050000  -3.7650000
   4.7870000   5.0030000  -4.6000000   3.5920000   6.5010000  -5.6090000
   4.1230000   7.5570000  -5.1780000   3.0610000   6.5450000  -6.7500000
   2.8220000   2.6230000  -2.3300000   3.6490000   3.1870000  -2.1920000
   1.9460000   2.5780000  -1.1700000   1.0530000   2.0590000  -1.5190000
   2.3460000   1.9710000  -0.3580000   1.6010000   3.9300000  -0.6590000
   1.9760000   4.9480000  -1.1630000   0.8110000   3.9910000   0.3930000
   0.5230000   3.1330000   0.8420000   0.4300000   5.2050000   1.0210000
   0.1110000   5.8970000   0.2420000  -0.3650000   4.9120000   1.7060000
   1.4740000   5.9080000   1.8880000   2.7250000   5.8450000   1.7160000
   0.9420000   6.6370000   2.9360000  -0.0660000   6.6720000   2.9860000
   1.7370000   7.4590000   3.8340000   2.7470000   7.0700000   3.9590000
   1.1710000   7.3550000   5.2860000   0.5600000   8.2850000   5.7190000
   1.7430000   8.9200000   3.3980000   2.2060000   9.5940000   4.1180000
   0.7150000   9.2520000   3.2540000   2.4420000   9.2450000   2.0160000
   2.0480000   8.5600000   1.2660000   2.1260000  10.7360000   1.5420000
   2.6670000  11.3170000   2.2890000   2.3030000  10.9960000   0.4980000
   1.0540000  10.8550000   1.6970000   3.9540000   9.1190000   2.1030000
   4.3130000   8.1990000   2.5630000   4.3940000   9.9670000   2.6290000
   4.3170000   9.1920000   1.0770000   1.3360000   6.2210000   5.8760000
   2.0770000   5.6470000   5.5000000   0.8780000   6.0370000   7.2160000
   1.1930000   5.0400000   7.5240000   1.4940000   6.7490000   7.7640000
  -0.6770000   6.2610000   7.4950000  -1.0110000   6.7690000   8.6310000
  -1.5830000   5.8770000   6.5590000  -1.2990000   5.6520000   5.6160000
  -2.9650000   5.5400000   6.8070000  -3.2850000   6.2100000   7.6040000
  -3.0930000   4.1380000   7.3910000  -3.8150000   3.9440000   8.3290000
  -3.8330000   5.7230000   5.5490000  -4.3400000   6.6700000   5.7320000
  -4.4730000   4.8670000   5.3330000  -2.9590000   6.0140000   4.2160000
  -3.2280000   6.9680000   3.4850000  -1.9730000   5.2430000   3.9940000
  -2.4050000   3.1690000   6.8420000  -1.8400000   3.4920000   6.0690000
  -2.6900000   1.7760000   7.1720000  -2.0620000   1.0500000   6.6550000
  -2.5980000   1.5740000   8.2400000  -4.1180000   1.4770000   6.7840000
  -4.6520000   1.9820000   5.7440000  -4.6460000   0.6290000   7.6400000
  -4.0580000   0.2700000   8.3790000  -5.7220000  -0.2140000   7.1370000
  -6.3640000   0.4870000   6.6040000  -6.3910000  -0.5510000   7.9300000
  -5.3450000  -1.3560000   6.1690000  -4.1700000  -1.2930000   5.7830000
  -6.2830000  -2.2640000   5.7940000  -7.2050000  -2.0690000   6.1570000
  -6.1030000  -3.3200000   4.7990000  -5.2660000  -3.9330000   5.1310000
  -5.7330000  -2.7460000   3.4410000  -6.6140000  -2.1590000   2.7770000
  -7.2590000  -4.3700000   4.8380000  -8.1480000  -3.7610000   4.6680000
  -7.2190000  -5.1470000   4.0750000  -7.5160000  -5.0930000   6.1660000
  -6.4280000  -5.7290000   6.7130000  -5.5030000  -5.7090000   6.1560000
  -8.7960000  -5.0030000   6.8210000  -9.5710000  -4.3930000   6.3800000
  -6.6140000  -6.3930000   7.9330000  -5.7220000  -6.9200000   8.2380000
  -8.9660000  -5.6690000   8.0900000  -9.9040000  -5.5530000   8.6130000
  -7.8600000  -6.3900000   8.6390000  -8.0240000  -6.9660000   9.8280000
  -7.1670000  -6.8470000  10.2430000  -4.4720000  -2.8510000   3.0630000
  -3.8220000  -3.3060000   3.6880000  -3.8070000  -2.2410000   1.9080000
  -4.6360000  -1.9040000   1.2850000  -3.3380000  -2.9140000   1.1900000
  -2.8860000  -1.0910000   2.1540000  -1.7560000  -1.2380000   1.7360000
  -3.3280000  -0.0140000   2.8360000  -4.3210000  -0.0510000   3.0160000
  -2.6620000   1.3540000   2.6800000  -3.3170000   2.1730000   2.9770000
  -2.3740000   1.5840000   1.6540000  -1.4380000   1.3590000   3.5490000
  -0.8670000   0.3440000   3.9460000  -0.9770000   2.6170000   3.7610000
  -1.5420000   3.4180000   3.5170000   0.2380000   2.9060000   4.5310000
   0.3550000   3.9770000   4.6950000   0.1770000   2.3700000   5.4780000
   1.5120000   2.5730000   3.7720000   1.6200000   2.4920000   2.5560000
   2.5440000   2.4990000   4.5360000   2.4300000   2.4280000   5.5370000
   3.9310000   2.5060000   4.0440000   4.6880000   1.9800000   4.6240000
   4.1060000   2.0810000   3.0550000   4.3500000   3.9830000   4.0750000
   3.8050000   4.8320000   4.8030000   5.3260000   4.1560000   3.2240000
   5.7310000   3.3270000   2.8140000   5.9030000   5.4860000   2.9230000
   5.1490000   6.2720000   2.9560000   6.4820000   5.6610000   1.5030000
   7.5790000   6.2420000   1.3950000   6.8640000   5.7920000   4.0820000
   6.3560000   5.5360000   5.0110000   7.6560000   5.0450000   4.0310000
   7.2810000   7.1600000   4.1870000   7.9350000   7.3410000   3.5080000
   5.9920000   4.9700000   0.4460000   5.0790000   4.5690000   0.6070000
   6.4730000   5.1480000  -0.9310000   7.5060000   5.4950000  -0.9120000
   5.7970000   5.8610000  -1.4040000   6.3770000   3.7910000  -1.6750000
   5.5080000   2.9660000  -1.3850000   7.2680000   3.5460000  -2.6190000
   8.0330000   4.2000000  -2.7030000   7.3560000   2.4240000  -3.5270000
   6.3620000   2.2780000  -3.9490000   7.6340000   1.1360000  -2.7330000
   8.6280000   1.0140000  -2.0400000   8.3230000   2.7550000  -4.6650000
   9.2730000   3.2210000  -4.4050000   8.5130000   1.8340000  -5.2160000
   7.7080000   3.6890000  -5.6920000   7.8100000   5.0520000  -5.7640000
   8.4890000   5.6680000  -5.1940000   6.9050000   3.2860000  -6.7900000
   7.2490000   5.4330000  -6.9650000   7.2560000   6.4080000  -7.2280000
   6.7210000   4.3930000  -7.6410000   6.4720000   2.0240000  -7.2390000
   6.6820000   1.1940000  -6.5810000   6.1160000   4.2360000  -8.9280000
   6.0190000   5.1050000  -9.5610000   5.7560000   1.8410000  -8.4530000
   5.2870000   0.9280000  -8.7910000   5.6730000   2.9930000  -9.3900000
   5.2170000   2.8410000 -10.3570000   6.7970000   0.0690000  -2.9030000
   6.0140000   0.1060000  -3.5400000   6.9370000  -1.0860000  -1.9980000
   6.2770000  -1.9080000  -2.2780000   7.9830000  -1.3930000  -1.9890000
   6.3580000  -0.9130000  -0.6120000   6.5280000  -1.8440000   0.1150000
   5.5700000   0.2090000  -0.3090000   5.5760000   1.0130000  -0.9200000
   4.6260000   0.2680000   0.7940000   5.1060000  -0.2210000   1.6410000
   4.3950000   1.3100000   1.0170000   3.2710000  -0.3960000   0.5190000
   2.8570000  -0.6410000  -0.6110000   2.6260000  -0.7940000   1.6290000
   2.9890000  -0.6150000   2.5550000   1.3460000  -1.5010000   1.7230000
   0.8290000  -1.3000000   2.6620000   0.7090000  -1.1880000   0.8960000
   1.4870000  -2.9870000   1.4800000   2.5750000  -3.4570000   1.1640000
   0.3770000  -3.7270000   1.6490000  -0.4390000  -3.1640000   1.8410000
   0.3240000  -5.2220000   1.5960000   1.1750000  -5.6190000   1.0430000
  -0.9450000  -5.6240000   0.7660000  -1.3220000  -6.7730000   0.7210000
   0.3290000  -5.7950000   3.0050000  -0.7070000  -5.7260000   3.3370000
   1.2770000  -5.0750000   4.0670000   1.2350000  -3.9890000   3.9820000
   2.3190000  -5.3540000   3.9100000   0.8170000  -7.2860000   2.9370000
  -0.0560000  -7.8210000   2.5630000   0.9390000  -7.5880000   3.9770000
   1.7470000  -7.5460000   2.4320000   0.8340000  -5.3310000   5.4240000
  -0.2080000  -5.0310000   5.5420000   0.8730000  -6.3800000   5.7180000
   1.3520000  -4.7420000   6.1810000  -1.4890000  -4.6210000   0.0420000
  -1.1710000  -3.6650000   0.1110000  -2.5420000  -4.8260000  -0.9850000
  -3.5020000  -5.0570000  -0.5240000  -2.2060000  -5.6540000  -1.6110000
  -2.6500000  -3.5490000  -1.7640000  -2.3850000  -2.4270000  -1.1980000
  -3.0160000  -3.6690000  -3.0420000  -3.3500000  -4.5730000  -3.3460000
  -3.0690000  -2.4750000  -3.9820000  -2.1270000  -1.9440000  -3.8490000
  -3.1300000  -2.8520000  -5.0030000  -4.2090000  -1.5480000  -3.8310000
  -4.5910000  -0.9690000  -4.8250000  -4.7960000  -1.4970000  -2.6210000
  -4.3550000  -1.9360000  -1.8260000  -6.0690000  -0.8510000  -2.2630000
  -6.6620000  -0.3780000  -3.0450000  -5.7500000   0.2200000  -1.2000000
  -4.7640000   0.2340000  -0.3650000  -7.0540000  -1.9510000  -1.8430000
  -6.7180000  -2.3340000  -0.8790000  -8.0270000  -1.4990000  -1.6510000
  -7.2380000  -3.0790000  -2.9690000  -7.2760000  -2.7550000  -4.1900000
  -7.4140000  -4.3130000  -2.6410000  -6.7050000   1.1220000  -1.1450000
  -7.4800000   1.1800000  -1.7910000  -6.7220000   2.1540000  -0.1370000
  -7.6300000   2.7460000  -0.2520000  -6.6980000   1.6970000   0.8520000
  -5.4580000   3.0200000  -0.2390000  -4.9340000   3.3740000   0.7840000
  -5.0470000   3.4100000  -1.4800000  -5.5880000   3.0870000  -2.2700000
  -3.7010000   4.0010000  -1.7870000  -3.7140000   4.0210000  -2.8770000
  -2.4680000   3.2190000  -1.4100000  -1.3480000   3.7340000  -1.5190000
  -3.6260000   5.4470000  -1.2700000  -3.7050000   5.3880000  -0.1850000
  -2.6560000   5.8850000  -1.5040000  -4.6350000   6.3790000  -1.8900000
  -4.6890000   6.1430000  -2.9530000  -5.5880000   6.2060000  -1.3900000
  -4.4380000   7.9310000  -1.6310000  -4.4730000   8.1710000  -0.5690000
  -3.4540000   8.3000000  -1.9200000  -5.3770000   8.7990000  -2.4650000
  -4.9780000   8.6510000  -3.4680000  -6.4220000   8.4940000  -2.4060000
  -5.3120000  10.2550000  -2.0970000  -5.8440000  10.4190000  -1.2540000
  -4.3780000  10.6140000  -1.9600000  -5.8030000  10.8380000  -2.7610000
  -2.6440000   1.9420000  -0.9990000  -3.6150000   1.6670000  -1.0270000
  -1.5680000   0.9810000  -0.8320000  -1.9240000   0.1750000  -0.1920000
  -0.6920000   1.4460000  -0.3810000  -1.0060000   0.3610000  -2.1280000
  -1.5280000   0.5890000  -3.2400000   0.0730000  -0.4690000  -1.9880000
   0.3460000  -0.6690000  -1.0360000   0.7240000  -1.2840000  -2.9350000
   0.2280000  -1.1690000  -3.8990000   1.7690000  -1.0230000  -3.1020000
   0.5880000  -2.7370000  -2.5090000   0.3460000  -3.0970000  -1.3630000
   0.6490000  -3.7360000  -3.3920000   0.8110000  -4.6570000  -3.0110000
   0.7710000  -3.7010000  -4.8200000  -0.0950000  -4.0900000  -5.3550000
   0.9090000  -2.6570000  -5.1010000   1.9480000  -4.5140000  -5.2890000
   3.0730000  -4.1040000  -5.2800000   1.6450000  -5.6760000  -5.8290000
   0.6610000  -5.8940000  -5.7560000   2.5010000  -6.7710000  -6.2190000
   3.4160000  -6.4180000  -5.7420000   2.6010000  -7.0160000  -7.7090000
   1.5900000  -7.2350000  -8.3070000   2.0610000  -8.0130000  -5.4160000
   2.5800000  -8.8980000  -5.7840000   0.9770000  -8.0950000  -5.4840000
   2.2900000  -7.9370000  -3.8950000   3.5730000  -8.2720000  -3.3620000
   4.2540000  -8.8320000  -3.9870000   1.3480000  -7.2680000  -3.0920000
   0.3840000  -7.0610000  -3.5330000   3.8990000  -7.8840000  -2.1340000
   4.8790000  -8.1790000  -1.7900000   1.7100000  -6.8820000  -1.7730000
   1.0370000  -6.4010000  -1.0790000   2.9800000  -7.2540000  -1.2840000
   3.2450000  -6.9610000  -0.2790000   3.7010000  -6.9070000  -8.2810000
 -10.4290000  -4.7480000   0.6090000  -9.8740000  -5.9190000   0.0660000
  -8.6190000  -6.3250000   0.4440000  -8.5170000  -7.5260000   1.1300000
  -7.2880000  -7.9920000   1.5450000  -6.1350000  -7.2660000   1.2750000
  -4.7900000  -7.7730000   1.7250000  -4.0650000  -8.3300000   0.9320000
  -4.3660000  -7.6100000   3.1310000  -4.3940000  -8.6870000   4.0090000
  -4.0050000  -8.5120000   5.3280000  -3.5770000  -7.2620000   5.7700000
  -3.5630000  -6.1810000   4.8970000  -3.9710000  -6.3490000   3.5720000
  -6.2320000  -6.0560000   0.5730000  -5.1060000  -5.3400000   0.3000000
  -7.4790000  -5.5960000   0.1670000 -10.4021771  -4.8045940   1.7072157
  -9.8480634  -3.8766525   0.2724496 -11.4712692  -4.6459772   0.2724496
  -9.4235442  -8.1109592   1.3444768  -7.2199356  -8.9435152   2.0927099
  -4.7240458  -9.6759140   3.6581171  -4.0342893  -9.3611906   6.0265825
  -3.2495844  -7.1305799   6.8118866  -3.2307019  -5.1933852   5.2494130
  -3.9803901  -5.4923625   2.8820116  -5.1708311  -4.4853263  -0.1954087
  -7.5586922  -4.6443738  -0.3789457
