
  400  0.0000000e+00
   9.4340000   2.9540000   3.2090000   8.7380000   3.6530000   3.4250000
   9.5970000   3.0030000   2.2130000  10.2890000   3.2500000   3.6590000
   9.0620000   1.5400000   3.5740000   9.9010000   0.8790000   3.3560000
   7.8380000   1.0310000   2.8020000   7.0550000   1.8230000   2.2710000
   8.8630000   1.4780000   5.0890000   9.0400000   0.4540000   5.4180000
   9.6530000   2.0860000   5.5280000   7.4670000   1.8950000   5.5080000
   7.0610000   2.6900000   4.8830000   6.7330000   1.0910000   5.4500000
   7.3560000   2.2460000   6.9820000   8.2730000   1.9570000   7.4960000
   6.5330000   1.7100000   7.4560000   7.1860000   3.6640000   7.0430000
   7.7330000   4.2220000   6.4030000   6.3840000   4.3920000   7.8290000
   5.5190000   3.8180000   8.5650000   5.5380000   2.8090000   8.5170000
   4.7940000   4.3380000   9.0380000   6.3320000   5.6740000   7.8140000
   6.7010000   6.2210000   7.0500000   5.7380000   6.1630000   8.4690000
   7.6610000  -0.2920000   2.5550000   8.3950000  -0.9010000   2.8870000
   6.5230000  -0.7320000   1.8330000   6.4880000  -0.4670000   0.7760000
   5.6970000  -0.1520000   2.2460000   6.0920000  -2.2250000   2.0480000
   6.6120000  -3.0190000   2.8560000   5.0240000  -2.5640000   1.3470000
   4.5760000  -1.7870000   0.8820000   4.2970000  -3.8700000   1.3960000
   3.5940000  -3.7150000   2.2140000   4.9310000  -4.7070000   1.6900000
   3.6330000  -4.2010000   0.0550000   3.6860000  -3.3780000  -0.7960000
   3.1360000  -5.4040000  -0.2030000   3.0850000  -6.1190000   0.5080000
   2.3480000  -5.7500000  -1.4250000   2.9070000  -5.5020000  -2.3280000
   1.0150000  -5.0250000  -1.5010000   0.2480000  -4.8960000  -0.5020000
   2.1300000  -7.2410000  -1.5040000   1.5390000  -7.4910000  -2.3850000
   1.5740000  -7.5200000  -0.6080000   3.5010000  -7.9180000  -1.4950000
   4.4890000  -7.3810000  -1.9900000   3.5750000  -9.1340000  -1.0510000
   0.6540000  -4.4620000  -2.7030000   1.3770000  -4.5930000  -3.3970000
  -0.5200000  -3.6020000  -2.8970000  -0.9010000  -3.1820000  -1.9660000
  -0.2910000  -2.7620000  -3.5530000  -1.7210000  -4.3320000  -3.4900000
  -1.5890000  -4.9810000  -4.5930000  -2.9310000  -4.2160000  -2.8700000
  -2.9670000  -3.7140000  -1.9940000  -4.1390000  -4.6950000  -3.5080000
  -4.3630000  -4.0890000  -4.3860000  -4.0910000  -5.7570000  -3.7530000
  -5.2520000  -4.4870000  -2.4510000  -5.6940000  -3.3770000  -2.1940000
  -5.8320000  -5.5380000  -1.8960000  -5.4400000  -6.4410000  -2.1220000
  -6.9230000  -5.5260000  -0.8200000  -7.2600000  -4.4920000  -0.7440000
  -6.1940000  -5.7970000   0.5660000  -5.2540000  -6.6560000   0.5960000
  -8.0660000  -6.4640000  -1.1420000  -8.7490000  -6.5380000  -0.2960000
  -7.7510000  -7.4870000  -1.3510000  -8.9770000  -5.7980000  -2.2760000
  -9.5310000  -6.5730000  -2.8060000  -8.3050000  -5.3890000  -3.0320000
  -9.8280000  -4.6520000  -1.8370000 -10.5320000  -5.0260000  -1.0940000
  -9.1610000  -3.9810000  -1.2960000 -10.7030000  -4.1750000  -3.0070000
  -9.9920000  -3.9470000  -3.8010000 -11.3390000  -5.0350000  -3.2150000
 -11.5130000  -3.0490000  -2.6130000 -10.9200000  -2.2590000  -2.4040000
 -12.0060000  -3.2770000  -1.7610000 -12.2830000  -2.8210000  -3.2250000
  -6.5970000  -5.2150000   1.6780000  -7.2870000  -4.4830000   1.5900000
  -6.0120000  -5.3970000   3.0490000  -6.5460000  -6.1850000   3.5800000
  -4.9850000  -5.7620000   3.0350000  -6.1230000  -4.2300000   4.0190000
  -7.0280000  -3.4330000   3.9200000  -5.2190000  -4.1400000   4.9970000
  -4.3950000  -4.7160000   4.8960000  -5.1600000  -2.8660000   5.8200000
  -6.1960000  -2.6970000   6.1130000  -4.6220000  -3.0250000   6.7550000
  -4.6270000  -1.6400000   5.0920000  -4.2090000  -1.6490000   3.9160000
  -4.5550000  -0.5120000   5.8070000  -4.8610000  -0.6080000   6.7650000
  -4.0750000   0.8310000   5.3150000  -4.5960000   1.2580000   4.4580000
  -4.2110000   1.5940000   6.0820000  -2.5910000   0.8670000   5.0430000
  -1.8550000   0.1880000   5.6980000  -2.1230000   1.8560000   4.2940000
  -2.8210000   2.4540000   3.8770000  -0.7560000   1.9240000   3.8680000
  -0.4460000   0.8870000   3.7380000  -0.6560000   2.5990000   3.0170000
   0.1630000   2.4050000   4.9360000   0.2270000   3.5960000   5.2120000
   0.8780000   1.4720000   5.5910000   0.7570000   0.4760000   5.4790000
   1.8480000   1.7470000   6.6850000   1.4400000   2.5180000   7.3370000
   3.1500000   2.4170000   6.2680000   4.2380000   1.8930000   6.4620000
   2.0730000   0.3970000   7.5130000   2.6500000  -0.3850000   7.0190000
   2.6510000   0.5820000   8.4190000   0.7870000  -0.3770000   7.9660000
   0.2610000  -0.8460000   7.1340000   1.1560000  -1.4620000   8.9800000
   1.8410000  -2.1220000   8.4480000   0.3500000  -2.0940000   9.3520000
   1.6380000  -0.9430000   9.8090000  -0.1380000   0.5370000   8.7600000
  -0.5190000   1.3450000   8.1360000   0.4160000   0.8770000   9.6350000
  -0.9460000  -0.0230000   9.2320000   3.1210000   3.5760000   5.6470000
   2.2090000   3.9940000   5.5390000   4.2730000   4.2630000   5.1000000
   5.2340000   3.8510000   5.4070000   4.2870000   5.3210000   5.3610000
   4.2970000   4.1440000   3.5690000   4.0130000   5.1420000   2.8960000
   4.2130000   2.9070000   3.1410000   4.3130000   2.1660000   3.8200000
   4.1350000   2.5490000   1.6880000   4.2930000   1.4790000   1.5580000
   4.8160000   3.1580000   1.0930000   2.7300000   2.7920000   1.1750000
   1.7520000   2.1660000   1.4790000   2.6060000   3.7160000   0.2010000
   3.4440000   4.2440000   0.0020000   1.4470000   4.1100000  -0.5740000
   1.4550000   5.1790000  -0.7890000   0.4910000   3.9140000  -0.0890000
   1.4300000   3.4530000  -1.9640000   1.9280000   2.2970000  -2.1020000
   0.7850000   4.1310000  -2.9420000   0.3910000   5.0460000  -2.7770000
   0.7200000   3.5210000  -4.2580000   1.6110000   3.5460000  -4.8850000
   0.5960000   2.4460000  -4.1300000  -0.4200000   4.1080000  -5.0950000
  -0.5650000   5.3290000  -5.1140000  -1.3280000   3.2410000  -5.6010000
  -1.1290000   2.2620000  -5.4520000  -2.4410000   3.6330000  -6.5280000
  -2.0160000   4.1270000  -7.4020000  -3.3480000   4.6530000  -5.8880000
  -3.8200000   5.5160000  -6.6960000  -3.1070000   2.4310000  -7.1270000
  -3.7550000   2.0070000  -6.3600000  -3.8880000   2.7400000  -7.8210000
  -2.2260000   1.4240000  -7.7910000  -1.2970000   1.2370000  -7.2530000
  -1.9250000   1.9770000  -8.6800000  -2.9290000   0.1520000  -8.2460000
  -3.4580000   0.4440000  -9.1540000  -3.6110000  -0.2210000  -7.4820000
  -2.0280000  -1.0030000  -8.6800000  -1.3730000  -1.2480000  -7.8430000
  -1.3390000  -0.6700000  -9.4560000  -2.7200000  -2.2540000  -9.1600000
  -2.0320000  -2.9690000  -9.3480000  -3.2620000  -2.1730000 -10.0080000
  -3.2220000  -2.6530000  -8.3790000  -3.5090000   4.7220000  -4.5810000
  -3.2060000   3.9620000  -3.9880000  -4.2210000   5.7960000  -3.8130000
  -3.6780000   6.7010000  -4.0840000  -5.2680000   5.8020000  -4.1160000
  -4.1490000   5.6150000  -2.2960000  -3.5590000   4.6520000  -1.8360000
  -4.6440000   6.5980000  -1.6030000  -4.9610000   7.4150000  -2.1050000
  -4.6670000   6.5290000  -0.1260000  -3.7210000   6.1090000   0.2170000
  -5.7140000   5.5630000   0.3560000  -6.7390000   5.4240000  -0.2740000
  -4.9670000   7.9420000   0.4690000  -5.8120000   8.4140000  -0.0310000
  -3.7230000   8.8740000   0.2880000  -3.0460000   8.7740000   1.1360000
  -3.0410000   8.5340000  -0.4910000  -5.2370000   8.0160000   1.9850000
  -5.4190000   9.0640000   2.2240000  -6.1070000   7.4380000   2.2930000
  -4.4950000   7.6060000   2.6710000  -4.0470000  10.3240000   0.2120000
  -4.4960000  10.6250000  -0.7350000  -3.1270000  10.9060000   0.2710000
  -4.7790000  10.6250000   0.9610000  -5.4570000   4.6710000   1.3310000
  -4.5110000   4.6970000   1.6850000  -6.3920000   3.7910000   1.8710000
  -7.3050000   4.3660000   2.0250000  -6.0820000   3.3800000   2.8320000
  -6.7440000   2.5410000   1.0160000  -7.8900000   2.0700000   1.2460000
  -5.9230000   1.9660000   0.0740000  -5.3030000   2.6630000  -0.3130000
  -6.1980000   0.8070000  -0.7600000  -7.2810000   0.8430000  -0.8790000
  -6.0020000  -0.5150000  -0.0460000  -7.0130000  -0.9690000   0.4630000
  -5.6630000   0.9710000  -2.1650000  -5.8030000   0.0240000  -2.6880000
  -4.5780000   1.0270000  -2.0690000  -6.2490000   2.0800000  -3.0460000
  -5.7790000   2.0980000  -4.0290000  -6.0960000   3.1010000  -2.6980000
  -7.7740000   1.9570000  -3.2370000  -8.3550000   0.8100000  -3.1020000
  -8.4520000   2.9870000  -3.3780000  -4.8290000  -1.1720000  -0.1070000
  -4.0660000  -0.6690000  -0.5360000  -4.6100000  -2.3890000   0.6400000
  -4.9690000  -3.1360000  -0.0680000  -5.1620000  -2.2630000   1.5720000
  -3.1300000  -2.6710000   0.7660000  -2.5010000  -3.0580000  -0.2060000
  -2.6570000  -2.6900000   1.9740000  -3.3550000  -2.4470000   2.6620000
  -1.3130000  -3.1770000   2.4880000  -0.5530000  -2.8710000   1.7700000
  -1.3040000  -4.7030000   2.6820000  -2.2340000  -5.2400000   3.2520000
  -0.9540000  -2.3950000   3.7630000  -0.7590000  -1.3440000   3.5520000
  -1.7380000  -2.4440000   4.5190000   0.3090000  -2.8990000   4.4990000
   0.2830000  -3.8190000   5.4800000  -0.5890000  -4.3520000   5.8310000
   1.6290000  -2.3940000   4.4640000   1.5840000  -4.0340000   5.9580000
   1.8110000  -4.4040000   6.8700000   2.4340000  -3.1150000   5.3520000
   2.2660000  -1.2630000   3.8470000   1.6410000  -0.7080000   3.1630000
   3.7620000  -2.8530000   5.5000000   4.2940000  -3.2910000   6.3310000
   3.6080000  -0.8980000   4.1300000   4.0530000  -0.0250000   3.6760000
   4.3570000  -1.7400000   4.9290000   5.4040000  -1.5450000   5.1070000
  -0.2320000  -5.4130000   2.2460000   0.3860000  -4.8560000   1.6730000
   0.0850000  -6.8740000   2.3700000  -0.1730000  -7.1760000   3.3850000
   1.1440000  -6.9640000   2.1280000  -0.6510000  -7.8680000   1.4030000
  -1.0170000  -8.9270000   1.8680000  -1.0180000  -7.3580000   0.1690000
  -0.7560000  -6.4100000  -0.0590000  -1.9750000  -7.9700000  -0.8080000
  -2.5310000  -7.1700000  -1.2960000  -2.6080000  -8.7000000  -0.3040000
  -1.2870000  -8.8810000  -1.8600000  -0.2210000  -9.4560000  -1.6610000
  -2.0030000  -9.0370000  -2.9630000  -2.8720000  -8.5260000  -3.0220000
  -1.4870000  -9.6020000  -4.2160000  -0.4610000  -9.9340000  -4.0580000
  -1.4640000  -8.5270000  -5.3570000  -2.4740000  -8.3170000  -6.0220000
  -2.4440000 -10.7700000  -4.6070000  -2.2460000 -11.1250000  -5.6180000
  -3.4600000 -10.3840000  -4.5150000  -2.2530000 -11.9940000  -3.8390000
  -1.1850000 -12.1950000  -3.2050000  -3.2090000 -12.7920000  -3.7370000
  -0.3020000  -7.9480000  -5.5080000   0.4040000  -8.2280000  -4.8410000
   0.1550000  -7.0300000  -6.5420000   0.1330000  -7.3700000  -7.5770000
  -0.4670000  -6.1350000  -6.5320000   1.5610000  -6.5400000  -6.2760000
   2.2600000  -7.0480000  -5.3790000   2.0000000  -5.4630000  -6.9070000
   1.3950000  -5.0290000  -7.5890000   3.3480000  -4.8580000  -6.7830000
   4.0020000  -5.7310000  -6.7900000   3.6150000  -4.1280000  -5.4560000
   2.7090000  -3.7160000  -4.7730000   3.5850000  -4.0610000  -8.0180000
   4.5580000  -3.5750000  -7.9400000   3.6510000  -4.6920000  -8.9040000
   2.5520000  -3.1520000  -8.3030000   2.9490000  -2.5160000  -8.9030000
   4.9190000  -3.9240000  -5.1630000   5.6190000  -4.1150000  -5.8650000
   5.3710000  -3.2800000  -3.9360000   6.4560000  -3.3640000  -4.0000000
   5.1000000  -3.8700000  -3.0600000   5.0350000  -1.8210000  -3.8300000
   5.4880000  -1.0180000  -4.6710000   4.1470000  -1.4690000  -2.8990000
   3.8700000  -2.1230000  -2.1810000   3.7440000  -0.0720000  -2.6990000
   2.8380000   0.0390000  -2.1040000   3.4360000   0.2900000  -3.6800000
   4.8730000   0.8740000  -2.0920000   5.7480000   0.3930000  -1.3610000
   4.8840000   2.1210000  -2.5750000   4.0980000   2.3350000  -3.1720000
   6.0570000   2.9850000  -2.4150000   6.8930000   2.4520000  -1.9620000
   5.6870000   4.1500000  -1.4590000   4.7140000   4.8510000  -1.7590000
   6.4420000   3.4800000  -3.7770000   5.5860000   3.9930000  -4.2160000
   7.2130000   4.2310000  -3.6050000   6.9140000   2.4620000  -4.8510000
   6.7830000   3.0080000  -5.7850000   6.3590000   1.5240000  -4.8330000
   8.4070000   2.2270000  -4.7940000   8.9000000   1.2850000  -4.0550000
   9.1680000   2.8560000  -5.5960000   6.5800000   4.4240000  -0.5230000
   7.4620000   3.9350000  -0.4690000   6.3790000   5.5150000   0.3700000
   5.4350000   5.3830000   0.8970000   6.3790000   6.4640000  -0.1660000
   7.5310000   5.6650000   1.3180000   8.5550000   4.9920000   1.1930000
   7.2680000   6.4710000   2.3850000   6.3290000   6.7020000   2.6760000
   8.3950000   6.8060000   3.3030000   9.3280000   6.4030000   2.9060000
   8.1330000   6.2660000   4.7160000   7.7180000   7.0510000   5.6010000
   8.4500000   8.3520000   3.1570000   8.4440000   8.6770000   2.1170000
   9.3730000   8.6780000   3.6360000   7.2840000   8.8970000   3.7640000
   7.1330000   8.4200000   4.5830000   8.4730000   5.0530000   4.9450000
  -3.9640000   0.5590000  -4.5290000  -3.5320000   0.4590000  -3.0850000
  -3.0240000   1.7720000  -2.5610000  -1.7110000   1.6230000  -1.8650000
  -1.5420000   2.5360000  -0.6700000  -0.5580000   1.9480000   0.3300000
  -0.0190000   0.5750000  -0.0290000  -2.7960000   2.7060000  -0.0550000
  -3.1370000   3.9050000   0.3950000  -3.9740000   4.0720000   1.2560000
  -2.4310000   4.9900000  -0.3010000  -2.7160000   6.2600000   0.0100000
  -2.1400000   7.4010000  -0.7240000  -2.2480000   7.5220000  -2.0900000
  -1.7260000   8.6270000  -2.7430000  -1.0870000   9.6050000  -2.0290000
  -0.5690000  10.7240000  -2.6160000  -0.9650000  11.0780000  -3.9350000
  -0.9760000   9.4930000  -0.6550000  -1.4930000   8.3780000  -0.0070000
  -5.0347225   0.8068524  -4.5750698  -3.3833844   1.3464922  -5.0317340
  -3.7884806  -0.4035235  -5.0317340  -4.3924899   0.1423450  -2.4773104
  -2.7130375  -0.2728051  -3.0236667  -2.9028029   2.4684071  -3.4038098
  -3.7545428   2.1542646  -1.8328647  -1.6175612   0.5822378  -1.5213675
  -0.9322594   1.9003461  -2.5907012  -1.1453153   3.5041483  -1.0096030
   0.2948524   2.6375330   0.4147769  -1.1146847   1.8225617   1.2704081
   0.2008079   0.0150811   0.8919643  -0.7696541   0.0293164  -0.6195488
   0.9024083   0.6857196  -0.6195488  -1.6771461   4.7608181  -1.0685806
  -3.4052056   6.4596359   0.8437512  -2.7531048   6.7347635  -2.6689023
  -1.8249492   8.7184666  -3.8347156  -1.7843323  11.8104335  -3.8877162
  -0.1099238  11.5183096  -4.4688277  -1.3070875  10.1791095  -4.4688277
  -0.4791582  10.2854686  -0.0760858  -1.3839696   8.2772867   1.0829400
