
  371  0.0000000e+00
   7.2900000  -3.6300000  -7.5300000   6.9800000  -3.5900000  -8.5000000
   8.0900000  -3.0100000  -7.4400000   7.5500000  -4.6000000  -7.4500000
   6.2100000  -3.4100000  -6.5200000   5.5400000  -4.2500000  -6.7100000
   5.5000000  -2.1000000  -6.8800000   6.1600000  -1.2500000  -7.5100000
   6.7900000  -3.3200000  -5.1300000   6.0300000  -2.9600000  -4.4300000
   7.6300000  -2.6300000  -5.1600000   7.2400000  -4.7100000  -4.6000000
   8.0100000  -4.5000000  -3.8500000   7.7700000  -5.2800000  -5.3600000
   6.1200000  -5.5300000  -4.0000000   5.2200000  -5.5700000  -4.6200000
   6.5000000  -6.5400000  -3.8600000   5.6200000  -5.1000000  -2.7000000
   4.7800000  -4.5400000  -2.6700000   6.1200000  -5.4100000  -1.5100000
   7.0500000  -6.2600000  -1.3100000   7.3500000  -6.4800000  -0.3700000
   7.6200000  -6.5900000  -2.0600000   5.6700000  -4.7000000  -0.5500000
   5.9000000  -4.9600000   0.4000000   5.0600000  -3.9100000  -0.6900000
   4.2200000  -1.8800000  -6.4300000   3.8500000  -2.6200000  -5.8400000
   3.5200000  -0.6500000  -6.5500000   2.4600000  -0.8600000  -6.4300000
   3.7000000  -0.3200000  -7.5700000   3.9400000   0.3800000  -5.4600000
   4.5400000   0.0100000  -4.4500000   3.5100000   1.6500000  -5.6800000
   3.0900000   1.8000000  -6.5900000   3.4700000   2.7200000  -4.7400000
   4.4700000   2.8300000  -4.3400000   2.4400000   2.5700000  -3.6400000
   1.2300000   2.3700000  -3.8900000   3.2700000   3.9700000  -5.5400000
   2.2300000   4.0400000  -5.8700000   3.8100000   3.8900000  -6.4800000
   3.7200000   5.1900000  -4.7500000   3.2600000   5.2100000  -3.7700000
   4.7900000   5.0000000  -4.6000000   3.5900000   6.5000000  -5.6100000
   4.1200000   7.5600000  -5.1800000   3.0600000   6.5400000  -6.7500000
   2.8200000   2.6200000  -2.3300000   3.6500000   3.1900000  -2.1900000
   1.9500000   2.5800000  -1.1700000   1.0500000   2.0600000  -1.5200000
   2.3500000   1.9700000  -0.3600000   1.6000000   3.9300000  -0.6600000
   1.9800000   4.9500000  -1.1600000   0.8100000   3.9900000   0.3900000
   0.5200000   3.1300000   0.8400000   0.4300000   5.2000000   1.0200000
   0.1100000   5.9000000   0.2400000  -0.3700000   4.9100000   1.7100000
   1.4700000   5.9100000   1.8900000   2.7200000   5.8500000   1.7200000
   0.9400000   6.6400000   2.9400000  -0.0700000   6.6700000   2.9900000
   1.7400000   7.4600000   3.8300000   2.7500000   7.0700000   3.9600000
   1.1700000   7.3500000   5.2900000   0.5600000   8.2800000   5.7200000
   1.7400000   8.9200000   3.4000000   2.2100000   9.5900000   4.1200000
   0.7200000   9.2500000   3.2500000   2.4400000   9.2500000   2.0200000
   2.0500000   8.5600000   1.2700000   2.1300000  10.7400000   1.5400000
   2.6700000  11.3200000   2.2900000   2.3000000  11.0000000   0.5000000
   1.0500000  10.8500000   1.7000000   3.9500000   9.1200000   2.1000000
   4.3100000   8.2000000   2.5600000   4.3900000   9.9700000   2.6300000
   4.3200000   9.1900000   1.0800000   1.3400000   6.2200000   5.8800000
   2.0800000   5.6500000   5.5000000   0.8800000   6.0400000   7.2200000
   1.1900000   5.0400000   7.5200000   1.4900000   6.7500000   7.7600000
  -0.6800000   6.2600000   7.4900000  -1.0100000   6.7700000   8.6300000
  -1.5800000   5.8800000   6.5600000  -1.3000000   5.6500000   5.6200000
  -2.9600000   5.5400000   6.8100000  -3.2800000   6.2100000   7.6000000
  -3.0900000   4.1400000   7.3900000  -3.8100000   3.9400000   8.3300000
  -3.8300000   5.7200000   5.5500000  -4.3400000   6.6700000   5.7300000
  -4.4700000   4.8700000   5.3300000  -2.9600000   6.0100000   4.2200000
  -3.2300000   6.9700000   3.4900000  -1.9700000   5.2400000   3.9900000
  -2.4000000   3.1700000   6.8400000  -1.8400000   3.4900000   6.0700000
  -2.6900000   1.7800000   7.1700000  -2.0600000   1.0500000   6.6600000
  -2.6000000   1.5700000   8.2400000  -4.1200000   1.4800000   6.7800000
  -4.6500000   1.9800000   5.7400000  -4.6500000   0.6300000   7.6400000
  -4.0600000   0.2700000   8.3800000  -5.7200000  -0.2100000   7.1400000
  -6.3600000   0.4900000   6.6000000  -6.3900000  -0.5500000   7.9300000
  -5.3500000  -1.3600000   6.1700000  -4.1700000  -1.2900000   5.7800000
  -6.2800000  -2.2600000   5.7900000  -7.2100000  -2.0700000   6.1600000
  -6.1000000  -3.3200000   4.8000000  -5.2700000  -3.9300000   5.1300000
  -5.7300000  -2.7500000   3.4400000  -6.6100000  -2.1600000   2.7800000
  -7.2600000  -4.3700000   4.8400000  -8.1500000  -3.7600000   4.6700000
  -7.2200000  -5.1500000   4.0800000  -7.5200000  -5.0900000   6.1700000
  -6.4300000  -5.7300000   6.7100000  -5.5000000  -5.7100000   6.1600000
  -8.8000000  -5.0000000   6.8200000  -9.5700000  -4.3900000   6.3800000
  -6.6100000  -6.3900000   7.9300000  -5.7200000  -6.9200000   8.2400000
  -8.9700000  -5.6700000   8.0900000  -9.9000000  -5.5500000   8.6100000
  -7.8600000  -6.3900000   8.6400000  -8.0200000  -6.9700000   9.8300000
  -7.1700000  -6.8500000  10.2400000  -4.4700000  -2.8500000   3.0600000
  -3.8200000  -3.3100000   3.6900000  -3.8100000  -2.2400000   1.9100000
  -4.6400000  -1.9000000   1.2800000  -3.3400000  -2.9100000   1.1900000
  -2.8900000  -1.0900000   2.1500000  -1.7600000  -1.2400000   1.7400000
  -3.3300000  -0.0100000   2.8400000  -4.3200000  -0.0500000   3.0200000
  -2.6600000   1.3500000   2.6800000  -3.3200000   2.1700000   2.9800000
  -2.3700000   1.5800000   1.6500000  -1.4400000   1.3600000   3.5500000
  -0.8700000   0.3400000   3.9500000  -0.9800000   2.6200000   3.7600000
  -1.5400000   3.4200000   3.5200000   0.2400000   2.9100000   4.5300000
   0.3600000   3.9800000   4.6900000   0.1800000   2.3700000   5.4800000
   1.5100000   2.5700000   3.7700000   1.6200000   2.4900000   2.5600000
   2.5400000   2.5000000   4.5400000   2.4300000   2.4300000   5.5400000
   3.9300000   2.5100000   4.0400000   4.6900000   1.9800000   4.6200000
   4.1100000   2.0800000   3.0600000   4.3500000   3.9800000   4.0700000
   3.8100000   4.8300000   4.8000000   5.3300000   4.1600000   3.2200000
   5.7300000   3.3300000   2.8100000   5.9000000   5.4900000   2.9200000
   5.1500000   6.2700000   2.9600000   6.4800000   5.6600000   1.5000000
   7.5800000   6.2400000   1.3900000   6.8600000   5.7900000   4.0800000
   6.3600000   5.5400000   5.0100000   7.6600000   5.0400000   4.0300000
   7.2800000   7.1600000   4.1900000   7.9300000   7.3400000   3.5100000
   5.9900000   4.9700000   0.4500000   5.0800000   4.5700000   0.6100000
   6.4700000   5.1500000  -0.9300000   7.5100000   5.4900000  -0.9100000
   5.8000000   5.8600000  -1.4000000   6.3800000   3.7900000  -1.6800000
   5.5100000   2.9700000  -1.3800000   7.2700000   3.5500000  -2.6200000
   8.0300000   4.2000000  -2.7000000   7.3600000   2.4200000  -3.5300000
   6.3600000   2.2800000  -3.9500000   7.6300000   1.1400000  -2.7300000
   8.6300000   1.0100000  -2.0400000   8.3200000   2.7500000  -4.6600000
   9.2700000   3.2200000  -4.4100000   8.5100000   1.8300000  -5.2200000
   7.7100000   3.6900000  -5.6900000   7.8100000   5.0500000  -5.7600000
   8.4900000   5.6700000  -5.1900000   6.9000000   3.2900000  -6.7900000
   7.2500000   5.4300000  -6.9600000   7.2600000   6.4100000  -7.2300000
   6.7200000   4.3900000  -7.6400000   6.4700000   2.0200000  -7.2400000
   6.6800000   1.1900000  -6.5800000   6.1200000   4.2400000  -8.9300000
   6.0200000   5.1000000  -9.5600000   5.7600000   1.8400000  -8.4500000
   5.2900000   0.9300000  -8.7900000   5.6700000   2.9900000  -9.3900000
   5.2200000   2.8400000 -10.3600000   6.8000000   0.0700000  -2.9000000
   6.0100000   0.1100000  -3.5400000   6.9400000  -1.0900000  -2.0000000
   6.2800000  -1.9100000  -2.2800000   7.9800000  -1.3900000  -1.9900000
   6.3600000  -0.9100000  -0.6100000   6.5300000  -1.8400000   0.1100000
   5.5700000   0.2100000  -0.3100000   5.5800000   1.0100000  -0.9200000
   4.6300000   0.2700000   0.7900000   5.1100000  -0.2200000   1.6400000
   4.4000000   1.3100000   1.0200000   3.2700000  -0.4000000   0.5200000
   2.8600000  -0.6400000  -0.6100000   2.6300000  -0.7900000   1.6300000
   2.9900000  -0.6100000   2.5500000   1.3500000  -1.5000000   1.7200000
   0.8300000  -1.3000000   2.6600000   0.7100000  -1.1900000   0.9000000
   1.4900000  -2.9900000   1.4800000   2.5700000  -3.4600000   1.1600000
   0.3800000  -3.7300000   1.6500000  -0.4400000  -3.1600000   1.8400000
   0.3200000  -5.2200000   1.6000000   1.1700000  -5.6200000   1.0400000
  -0.9500000  -5.6200000   0.7700000  -1.3200000  -6.7700000   0.7200000
   0.3300000  -5.8000000   3.0100000  -0.7100000  -5.7300000   3.3400000
   1.2800000  -5.0700000   4.0700000   1.2300000  -3.9900000   3.9800000
   2.3200000  -5.3500000   3.9100000   0.8200000  -7.2900000   2.9400000
  -0.0600000  -7.8200000   2.5600000   0.9400000  -7.5900000   3.9800000
   1.7500000  -7.5500000   2.4300000   0.8300000  -5.3300000   5.4200000
  -0.2100000  -5.0300000   5.5400000   0.8700000  -6.3800000   5.7200000
   1.3500000  -4.7400000   6.1800000  -1.4900000  -4.6200000   0.0400000
  -1.1700000  -3.6600000   0.1100000  -2.5400000  -4.8300000  -0.9900000
  -3.5000000  -5.0600000  -0.5200000  -2.2100000  -5.6500000  -1.6100000
  -2.6500000  -3.5500000  -1.7600000  -2.3800000  -2.4300000  -1.2000000
  -3.0200000  -3.6700000  -3.0400000  -3.3500000  -4.5700000  -3.3500000
  -3.0700000  -2.4800000  -3.9800000  -2.1300000  -1.9400000  -3.8500000
  -3.1300000  -2.8500000  -5.0000000  -4.2100000  -1.5500000  -3.8300000
  -4.5900000  -0.9700000  -4.8300000  -4.8000000  -1.5000000  -2.6200000
  -4.3500000  -1.9400000  -1.8300000  -6.0700000  -0.8500000  -2.2600000
  -6.6600000  -0.3800000  -3.0500000  -5.7500000   0.2200000  -1.2000000
  -4.7600000   0.2300000  -0.3700000  -7.0500000  -1.9500000  -1.8400000
  -6.7200000  -2.3300000  -0.8800000  -8.0300000  -1.5000000  -1.6500000
  -7.2400000  -3.0800000  -2.9700000  -7.2800000  -2.7600000  -4.1900000
  -7.4100000  -4.3100000  -2.6400000  -6.7000000   1.1200000  -1.1500000
  -7.4800000   1.1800000  -1.7900000  -6.7200000   2.1500000  -0.1400000
  -7.6300000   2.7500000  -0.2500000  -6.7000000   1.7000000   0.8500000
  -5.4600000   3.0200000  -0.2400000  -4.9300000   3.3700000   0.7800000
  -5.0500000   3.4100000  -1.4800000  -5.5900000   3.0900000  -2.2700000
  -3.7000000   4.0000000  -1.7900000  -3.7100000   4.0200000  -2.8800000
  -2.4700000   3.2200000  -1.4100000  -1.3500000   3.7300000  -1.5200000
  -3.6300000   5.4500000  -1.2700000  -3.7100000   5.3900000  -0.1800000
  -2.6600000   5.8800000  -1.5000000  -4.6400000   6.3800000  -1.8900000
  -4.6900000   6.1400000  -2.9500000  -5.5900000   6.2100000  -1.3900000
  -4.4400000   7.9300000  -1.6300000  -4.4700000   8.1700000  -0.5700000
  -3.4500000   8.3000000  -1.9200000  -5.3800000   8.8000000  -2.4700000
  -4.9800000   8.6500000  -3.4700000  -6.4200000   8.4900000  -2.4100000
  -5.3100000  10.2600000  -2.1000000  -5.8400000  10.4200000  -1.2500000
  -4.3800000  10.6100000  -1.9600000  -5.8000000  10.8400000  -2.7600000
  -2.6400000   1.9400000  -1.0000000  -3.6100000   1.6700000  -1.0300000
  -1.5700000   0.9800000  -0.8300000  -1.9200000   0.1700000  -0.1900000
  -0.6900000   1.4500000  -0.3800000  -1.0100000   0.3600000  -2.1300000
  -1.5300000   0.5900000  -3.2400000   0.0700000  -0.4700000  -1.9900000
   0.3500000  -0.6700000  -1.0400000   0.7200000  -1.2800000  -2.9400000
   0.2300000  -1.1700000  -3.9000000   1.7700000  -1.0200000  -3.1000000
   0.5900000  -2.7400000  -2.5100000   0.3500000  -3.1000000  -1.3600000
   0.6500000  -3.7400000  -3.3900000   0.8100000  -4.6600000  -3.0100000
   0.7700000  -3.7000000  -4.8200000  -0.1000000  -4.0900000  -5.3600000
   0.9100000  -2.6600000  -5.1000000   1.9500000  -4.5100000  -5.2900000
   3.0700000  -4.1000000  -5.2800000   1.6400000  -5.6800000  -5.8300000
   0.6600000  -5.8900000  -5.7600000   2.5000000  -6.7700000  -6.2200000
   3.4200000  -6.4200000  -5.7400000   2.6000000  -7.0200000  -7.7100000
   1.5900000  -7.2300000  -8.3100000   2.0600000  -8.0100000  -5.4200000
   2.5800000  -8.9000000  -5.7800000   0.9800000  -8.1000000  -5.4800000
   2.2900000  -7.9400000  -3.8900000   3.5700000  -8.2700000  -3.3600000
   4.2500000  -8.8300000  -3.9900000   1.3500000  -7.2700000  -3.0900000
   0.3800000  -7.0600000  -3.5300000   3.9000000  -7.8800000  -2.1300000
   4.8800000  -8.1800000  -1.7900000   1.7100000  -6.8800000  -1.7700000
   1.0400000  -6.4000000  -1.0800000   2.9800000  -7.2500000  -1.2800000
   3.2500000  -6.9600000  -0.2800000   3.7000000  -6.9100000  -8.2800000
 -10.4290000  -4.7480000   0.6090000  -9.8740000  -5.9190000   0.0660000
  -8.6190000  -6.3250000   0.4440000  -8.5170000  -7.5260000   1.1300000
  -7.2880000  -7.9920000   1.5450000  -6.1350000  -7.2660000   1.2750000
  -4.7900000  -7.7730000   1.7250000  -4.0650000  -8.3300000   0.9320000
  -4.3660000  -7.6100000   3.1310000  -4.3940000  -8.6870000   4.0090000
  -4.0050000  -8.5120000   5.3280000  -3.5770000  -7.2620000   5.7700000
  -3.5630000  -6.1810000   4.8970000  -3.9710000  -6.3490000   3.5720000
  -6.2320000  -6.0560000   0.5730000  -5.1060000  -5.3400000   0.3000000
  -7.4790000  -5.5960000   0.1670000 -10.4021771  -4.8045940   1.7072157
  -9.8480634  -3.8766525   0.2724496 -11.4712692  -4.6459772   0.2724496
  -9.4235442  -8.1109592   1.3444768  -7.2199356  -8.9435152   2.0927099
  -4.7240458  -9.6759140   3.6581171  -4.0342893  -9.3611906   6.0265825
  -3.2495844  -7.1305799   6.8118866  -3.2307019  -5.1933852   5.2494130
  -3.9803901  -5.4923625   2.8820116  -5.1708311  -4.4853263  -0.1954087
  -7.5586922  -4.6443738  -0.3789457
