
  371  0.0000000e+00
   5.9900000  -1.0600000  10.0100000   5.5200000  -0.2000000  10.2800000
   6.9100000  -1.1100000  10.4200000   5.4500000  -1.8200000  10.3800000
   6.0800000  -1.0300000   8.5400000   5.0700000  -0.9000000   8.1600000
   6.6300000  -2.4100000   8.0800000   7.3400000  -3.0900000   8.8500000
   6.9200000   0.1700000   8.1000000   7.8600000  -0.2100000   7.7000000
   7.0900000   0.7800000   8.9900000   6.4100000   1.1100000   6.9800000
   5.0700000   1.4900000   7.0100000   4.5200000   1.3900000   7.9300000
   7.2400000   1.6100000   5.9500000   8.2400000   1.1800000   5.8800000
   4.5300000   2.2500000   5.9500000   3.4700000   2.4400000   6.0300000
   6.7500000   2.4700000   4.9900000   7.4300000   2.7700000   4.2100000
   5.3400000   2.7300000   4.9300000   4.8600000   3.6700000   4.1100000
   3.9300000   3.5000000   3.9300000   6.1400000  -2.9400000   6.9400000
   5.5600000  -2.3200000   6.4000000   6.3100000  -4.2500000   6.3700000
   5.4400000  -4.8300000   6.6900000   7.1800000  -4.7500000   6.7900000
   6.4400000  -4.2200000   4.8200000   6.9400000  -3.2200000   4.2700000
   5.8900000  -5.2400000   4.1500000   5.5900000  -6.1200000   4.5600000
   6.0300000  -5.2600000   2.6900000   6.7600000  -4.5500000   2.3000000
   4.8100000  -4.7700000   1.9800000   3.7100000  -5.1600000   2.4200000
   6.5300000  -6.6200000   2.1700000   5.9700000  -7.3700000   2.7200000
   6.2500000  -6.6500000   1.1200000   8.0100000  -6.9300000   2.4000000
   8.7500000  -6.1700000   3.0500000   8.4600000  -8.0100000   1.9100000
   4.9200000  -3.9200000   0.9100000   5.7700000  -3.4200000   0.6800000
   3.7900000  -3.5200000   0.1000000   4.1100000  -2.6000000  -0.3900000
   2.9900000  -3.1400000   0.7300000   3.2000000  -4.6100000  -0.8600000
   3.5900000  -5.7600000  -0.8300000   2.3100000  -4.1800000  -1.8000000
   2.0300000  -3.2200000  -1.8600000   1.6400000  -5.0900000  -2.7400000
   1.2700000  -6.0200000  -2.3100000   2.4400000  -5.3900000  -3.4100000
   0.3700000  -4.4400000  -3.4200000   0.0900000  -3.2600000  -3.1600000
  -0.3500000  -5.2300000  -4.2600000  -0.0900000  -6.2000000  -4.2500000
  -1.5100000  -4.7700000  -5.1200000  -1.4300000  -3.6800000  -5.1100000
  -2.8700000  -5.0800000  -4.4200000  -2.9700000  -6.1200000  -3.7700000
  -1.4000000  -5.3600000  -6.5300000  -2.2700000  -5.0700000  -7.1100000
  -1.3300000  -6.4500000  -6.4400000  -0.1500000  -4.8800000  -7.1800000
   0.7100000  -5.0500000  -6.5300000  -0.2900000  -3.8100000  -7.3300000
   0.0100000  -5.5700000  -8.5700000  -0.8400000  -5.2000000  -9.1400000
  -0.2100000  -6.6300000  -8.4400000   1.2800000  -5.2400000  -9.2200000
   1.4300000  -4.3000000  -9.5700000   2.2300000  -6.1300000  -9.5400000
   2.1800000  -7.3600000  -9.2400000   1.3300000  -7.8200000  -8.9500000
   2.9200000  -7.9600000  -9.5800000   3.1900000  -5.6400000 -10.2000000
   3.2300000  -4.6400000 -10.3600000   4.0600000  -6.1500000 -10.1800000
  -3.9600000  -4.3400000  -4.5200000  -4.0900000  -3.6400000  -5.2300000
  -5.2700000  -4.5300000  -3.8900000  -6.0200000  -4.8800000  -4.6000000
  -5.1900000  -5.3200000  -3.1400000  -5.7400000  -3.2900000  -3.1900000
  -5.1800000  -2.2000000  -3.3000000  -6.7500000  -3.4300000  -2.3700000
  -7.2700000  -4.3000000  -2.3300000  -7.2000000  -2.4000000  -1.4400000
  -7.1400000  -1.4000000  -1.8800000  -6.2100000  -2.2900000  -0.3000000
  -5.9900000  -3.2600000   0.3700000  -8.6400000  -2.7600000  -0.9900000
  -8.9900000  -1.9400000  -0.3500000  -8.7300000  -3.6700000  -0.4000000
  -9.6800000  -2.8600000  -2.1100000 -10.4900000  -1.7800000  -2.3900000
 -10.2900000  -0.8400000  -1.9000000  -9.8900000  -4.0000000  -2.9400000
  -9.3000000  -4.9000000  -2.8300000 -11.5300000  -1.7900000  -3.3100000
 -12.1000000  -0.9000000  -3.5300000 -10.9000000  -4.0200000  -3.8500000
 -11.1200000  -4.8400000  -4.5100000 -11.6900000  -2.9100000  -4.0700000
 -12.3100000  -2.9900000  -4.9500000  -5.6000000  -1.1000000  -0.2100000
  -5.8700000  -0.3300000  -0.8000000  -4.4200000  -0.8300000   0.6300000
  -3.7700000  -0.0800000   0.1800000  -3.8800000  -1.7700000   0.6900000
  -4.7900000  -0.3100000   2.0100000  -5.8900000   0.1700000   2.2200000
  -3.8300000  -0.3600000   3.0100000  -2.9600000  -0.7900000   2.7600000
  -4.1300000  -0.2800000   4.4600000  -4.6400000  -1.1600000   4.8400000
  -4.8200000   0.5500000   4.6300000  -2.9300000   0.1300000   5.3200000
  -2.0300000   0.7400000   4.7500000  -2.9300000  -0.1500000   6.6400000
  -3.7600000  -0.5000000   7.0900000  -1.9300000   0.1500000   7.6100000
  -1.5300000   1.1200000   7.3200000  -0.8000000  -0.8300000   7.5900000
  -0.8900000  -2.0400000   7.7000000  -2.6100000   0.3500000   8.9900000
  -3.4100000   1.0900000   8.9000000  -3.0300000  -0.6100000   9.3000000
  -1.7100000   0.9200000  10.1000000  -0.7800000   0.4100000  10.3600000
  -1.5500000   1.9100000   9.6600000  -2.6000000   1.0600000  11.2900000
  -3.4400000   1.6200000  10.8900000  -2.9300000   0.1000000  11.6900000
  -1.9300000   1.8600000  12.3500000  -1.5200000   2.7700000  11.9100000
  -1.0900000   1.3400000  12.8100000  -2.8300000   2.2100000  13.4400000
  -3.3400000   1.3800000  13.7100000  -3.5600000   2.8800000  13.2500000
  -2.3700000   2.5100000  14.2900000   0.3500000  -0.2600000   7.4300000
   0.3400000   0.7300000   7.2100000   1.5800000  -0.8300000   7.9200000
   1.3900000  -1.3500000   8.8600000   2.2100000   0.0100000   8.2000000
   2.3000000  -1.7900000   6.9600000   3.1700000  -2.4800000   7.5000000
   1.9500000  -1.8400000   5.6400000   1.1600000  -1.3300000   5.2600000
   2.9200000  -2.3400000   4.6100000   3.2000000  -3.3700000   4.8500000
   2.3600000  -2.3600000   3.6800000   4.1700000  -1.5000000   4.4600000
   4.7300000  -1.1500000   5.4900000   4.6000000  -1.2400000   3.2500000
   4.1500000  -1.5900000   2.4200000   5.8700000  -0.4800000   2.9900000
   5.6800000   0.5900000   3.0500000   6.6100000  -0.6200000   3.7800000
   6.6100000  -0.7800000   1.7400000   6.0200000  -1.2800000   0.7800000
   7.8900000  -0.4200000   1.7500000   8.4200000  -0.1600000   2.5700000
   8.8300000  -0.4200000   0.5700000   8.6000000  -1.2700000  -0.0700000
   9.8700000  -0.6100000   0.8500000   8.6700000   0.8900000  -0.1700000
   8.5100000   1.9500000   0.4200000   8.8500000   0.8200000  -1.4500000
   9.0400000  -0.0500000  -1.9300000   8.9900000   2.0000000  -2.3400000
   9.4700000   2.8200000  -1.7900000   7.5900000   2.5600000  -2.8100000
   7.5300000   3.6800000  -3.3500000   9.8600000   1.5600000  -3.4800000
   9.5100000   0.6400000  -3.9400000   9.8600000   2.2900000  -4.2900000
  11.3200000   1.3400000  -3.0100000  11.3500000   0.4900000  -2.3300000
  11.5600000   2.1600000  -2.3400000  12.2500000   1.2200000  -4.2400000
  12.4500000   2.2400000  -4.8900000  12.6100000   0.0800000  -4.6600000
   6.4200000   1.9100000  -2.4800000   6.6200000   1.1400000  -1.8500000
   5.0600000   2.2200000  -2.9700000   4.4900000   1.2900000  -2.9900000
   5.1900000   2.6700000  -3.9600000   4.2800000   3.1700000  -2.1400000
   4.6500000   3.4300000  -0.9900000   3.1200000   3.6500000  -2.6800000
   2.8800000   3.3400000  -3.6100000   2.4400000   4.8600000  -2.2100000
   3.2600000   5.5500000  -2.0400000   1.6800000   4.6500000  -0.8300000
   1.5200000   3.5600000  -0.3200000   1.4300000   5.3700000  -3.3000000
   0.8200000   6.1900000  -2.9200000   0.3700000   4.3200000  -3.6500000
   0.6300000   3.4800000  -4.2900000  -0.0500000   3.8200000  -2.7700000
   2.1500000   5.8800000  -4.5000000   2.6000000   5.1100000  -5.1300000
   2.9200000   6.6300000  -4.3300000   1.4000000   6.3600000  -5.1400000
  -0.8100000   4.9400000  -4.4000000  -1.3300000   5.5200000  -3.6400000
  -1.4900000   4.2300000  -4.8800000  -0.4700000   5.5600000  -5.2300000
   1.1300000   5.7200000  -0.2700000   1.1300000   6.5900000  -0.7800000
   0.3600000   5.6700000   0.9700000   0.9600000   5.3300000   1.8200000
  -0.0900000   6.6500000   1.1200000  -0.9100000   4.7400000   0.8600000
  -1.6100000   4.7200000  -0.1300000  -1.2600000   4.2200000   2.0600000
  -0.6000000   4.3800000   2.8100000  -2.4400000   3.3400000   2.4200000
  -2.6200000   2.6100000   1.6300000  -2.3000000   2.7700000   3.3300000
  -3.7900000   4.0800000   2.5800000  -3.7900000   5.3200000   2.5900000
  -4.9000000   3.3600000   2.6300000  -4.8500000   2.3500000   2.6800000
  -6.2800000   3.9200000   2.5200000  -6.4700000   4.8800000   2.9900000
  -7.0100000   3.2300000   2.9400000  -6.7900000   3.9400000   1.0500000
  -8.0000000   3.9900000   0.7600000  -5.8500000   3.7600000   0.1000000
  -4.8900000   3.5100000   0.3100000  -5.9800000   3.7200000  -1.4000000
  -7.0300000   3.9800000  -1.5500000  -5.7700000   2.3400000  -2.0200000
  -5.1800000   1.5800000  -1.2400000  -4.9600000   4.7300000  -1.9400000
  -3.9900000   4.5200000  -1.4800000  -4.6900000   4.5500000  -2.9800000
  -5.3000000   6.2200000  -1.8400000  -5.2800000   6.4100000  -0.7700000
  -4.3100000   7.1900000  -2.4800000  -3.4000000   6.8500000  -1.9800000
  -4.4400000   8.2600000  -2.3100000  -4.0800000   6.9600000  -3.5200000
  -6.6500000   6.7500000  -2.2500000  -6.7800000   7.8100000  -2.0100000
  -6.7600000   6.5800000  -3.3200000  -7.3200000   6.1100000  -1.6800000
  -6.3400000   2.0700000  -3.2000000  -6.8600000   2.7800000  -3.7000000
  -6.2000000   0.7300000  -3.7600000  -7.0400000   0.1700000  -3.3500000
  -5.3400000   0.2600000  -3.2800000  -6.0500000   0.5500000  -5.2200000
  -6.4000000   1.4700000  -5.9800000  -5.5700000  -0.5800000  -5.6500000
  -5.1200000  -1.2100000  -5.0000000  -5.5900000  -0.9500000  -7.0600000
  -6.5000000  -1.5500000  -7.0500000  -5.6100000  -0.0400000  -7.6500000
  -4.3300000  -1.6900000  -7.5500000  -3.6300000  -2.2700000  -6.7200000
  -4.1200000  -1.7300000  -8.8900000  -4.6600000  -1.0200000  -9.3500000
  -3.0100000  -2.3000000  -9.6600000  -3.1200000  -3.3600000  -9.4300000
  -1.6400000  -1.7900000  -9.2000000  -0.7200000  -2.3900000  -9.7800000
  -3.1900000  -2.0300000 -11.1300000  -2.5200000  -2.7200000 -11.6400000
  -4.2300000  -2.2800000 -11.3600000  -2.9900000  -0.7400000 -11.6500000
  -2.1000000  -0.4400000 -11.4600000  -1.4000000  -0.7300000  -8.4600000
  -2.2200000  -0.3100000  -8.0500000  -0.0800000  -0.2700000  -7.9900000
  -0.2500000   0.7100000  -7.5400000   0.5700000  -0.2300000  -8.8600000
   0.5100000  -1.2800000  -6.8900000  -0.2200000  -1.6400000  -6.0000000
   1.8200000  -1.5800000  -6.8400000   2.3900000  -1.2000000  -7.5800000
   2.5500000  -2.1200000  -5.6200000   2.0400000  -2.9200000  -5.0900000
   2.5600000  -0.9900000  -4.6300000   3.4500000  -0.1600000  -4.6800000
   4.0500000  -2.5200000  -5.8700000   4.6700000  -1.8200000  -6.4300000
   4.4800000  -2.5600000  -4.8700000   4.2200000  -3.9400000  -6.4000000
   3.6400000  -4.8900000  -5.7800000   4.7900000  -4.0600000  -7.5100000
   1.5300000  -0.9500000  -3.7900000   0.8000000  -1.6400000  -3.7600000
   1.3700000   0.1200000  -2.8400000   1.8600000   0.9700000  -3.2900000
   0.3000000   0.3300000  -2.7400000   2.0200000  -0.1400000  -1.5100000
   2.0500000  -1.3300000  -1.0800000   2.5300000   0.8700000  -0.8100000
   2.2700000   1.8300000  -0.9900000   3.2200000   0.5500000   0.3700000
   3.9700000   1.3000000   0.6300000   3.7300000  -0.4100000   0.2600000
   2.2100000   0.4400000   1.5400000   2.0400000  -0.6500000   2.1200000
   1.5900000   1.5800000   1.9200000   1.6100000   2.4000000   1.3500000
   0.6400000   1.6700000   3.0500000   0.7200000   0.7200000   3.5800000
  -0.3600000   1.8700000   2.6700000   1.0000000   2.8400000   4.0500000
   1.9300000   3.5900000   3.7300000   0.2700000   2.9400000   5.1600000
  -0.3800000   2.2100000   5.4400000   0.2800000   4.0600000   6.1600000
   1.2100000   4.6100000   6.0100000   0.4100000   3.6900000   7.5900000
   0.8000000   2.4900000   7.7300000  -0.7700000   5.1300000   5.7800000
  -0.6700000   5.9700000   6.4600000  -0.6400000   5.4200000   4.7400000
  -2.2700000   4.8500000   5.8200000  -2.9000000   3.6700000   6.0200000
  -2.3500000   2.7700000   6.2300000  -3.4200000   5.8200000   5.6600000
  -4.2400000   3.7600000   6.0100000  -4.9000000   3.0000000   5.8900000
  -4.6000000   5.0900000   5.7100000  -3.4300000   7.2200000   5.4100000
  -2.4700000   7.7000000   5.2300000  -5.8500000   5.7400000   5.6100000
  -6.7600000   5.1500000   5.6600000  -4.6800000   7.9300000   5.3200000
  -4.7200000   8.9900000   5.1300000  -5.8400000   7.1600000   5.4500000
  -6.7600000   7.7300000   5.3900000   0.2500000   4.5000000   8.5000000
  -0.8130000   2.3280000  -5.8350000  -0.6830000   0.9980000  -5.4260000
  -0.4050000   0.7140000  -4.1250000  -0.8150000  -0.5140000  -3.6490000
  -0.5670000  -0.8720000  -2.3440000   0.1050000  -0.0110000  -1.5100000
   0.3540000  -0.4170000  -0.1230000   0.3030000   0.3870000   0.6380000
   0.5110000  -1.7420000   0.4220000  -0.1750000  -2.7950000  -0.1160000
  -0.0180000  -4.0630000   0.3980000   0.8180000  -4.2810000   1.4670000
   1.5280000  -3.2260000   1.9990000   1.3890000  -1.9500000   1.4730000
   0.5080000   1.2380000  -1.9780000   1.1390000   2.0910000  -1.1540000
   0.2510000   1.5870000  -3.2840000  -0.8766337   2.9790214  -4.9506235
   0.0615401   2.6132862  -6.4381512  -1.7262301   2.4385417  -6.4381512
  -1.3431238  -1.2108330  -4.3164646  -0.9068861  -1.8482129  -1.9678541
  -0.8558744  -2.6286594  -0.9637859  -0.5647498  -4.9060867  -0.0495149
   0.9196763  -5.2893702   1.8946113   2.2089434  -3.3970202   2.8457988
   1.9698564  -1.1121854   1.8861252   1.4257649   2.9786803  -1.4854961
   0.5714606   2.5699694  -3.6596011
