
  551  0.0000000e+00
  -1.0140000  10.5640000  -2.7960000  -1.9460000  10.9250000  -2.6520000
  -0.7740000  10.8600000  -3.7310000  -0.3770000  10.9750000  -2.1290000
  -1.1480000   9.1020000  -2.5840000  -1.1280000   8.8380000  -1.5260000
  -0.0210000   8.3680000  -3.2690000   0.1440000   8.5210000  -4.4520000
  -2.4470000   8.6040000  -3.0740000  -2.3310000   7.5430000  -3.2940000
  -2.6620000   9.0510000  -4.0450000  -3.3090000   8.7210000  -2.4180000
   0.6010000   7.4490000  -2.5290000   0.2660000   7.2900000  -1.5900000
   1.3580000   6.3820000  -3.1440000   1.9840000   6.8750000  -3.8880000
   0.5550000   5.2960000  -3.8750000  -0.3270000   4.7440000  -3.2090000
   2.3000000   5.6960000  -2.0580000   1.7670000   4.9110000  -1.5220000
   2.7640000   6.6680000  -1.0160000   3.1250000   7.6270000  -1.3880000
   1.8600000   6.8230000  -0.4270000   3.4820000   5.0700000  -2.8470000
   4.0830000   5.8730000  -3.2730000   3.1900000   4.4950000  -3.7250000
   4.1510000   4.4710000  -2.2280000   3.8650000   6.1600000  -0.1460000
   4.7650000   5.8840000  -0.6960000   3.4370000   5.4220000   0.5330000
   4.2490000   6.9430000   0.5070000   0.8920000   4.9300000  -5.0700000
   1.7770000   5.2200000  -5.4610000   0.4080000   3.6970000  -5.7240000
  -0.5880000   3.4840000  -5.3360000   1.5550000   2.7050000  -5.5110000
   2.6870000   2.8480000  -5.9440000   0.0780000   4.0500000  -7.2390000
   0.9820000   4.2430000  -7.8170000  -0.5260000   2.8000000  -7.9170000
  -1.5160000   2.6150000  -7.5000000   0.0950000   1.9070000  -7.8550000
  -0.6050000   3.0710000  -8.9700000  -0.8490000   5.2370000  -7.5340000
  -0.9170000   5.3920000  -8.6110000  -0.5550000   6.1820000  -7.0780000
  -1.7770000   4.9980000  -7.0150000   1.0970000   1.5250000  -5.0180000
   0.1350000   1.4280000  -4.7250000   1.8690000   0.2480000  -4.9860000
   2.8820000   0.4080000  -5.3560000   1.3100000  -0.8410000  -5.8830000
   0.1540000  -0.8360000  -6.1310000   1.9060000  -0.2410000  -3.5980000
   0.9170000  -0.5010000  -3.2220000   2.4510000  -1.1850000  -3.6250000
   2.5230000   0.6420000  -2.4430000   2.7910000  -0.0490000  -1.6440000
   3.8580000   1.3840000  -2.8130000   3.7300000   2.0260000  -3.6840000
   4.3030000   1.9830000  -2.0190000   4.6050000   0.6380000  -3.0860000
   1.5460000   1.7110000  -1.8840000   1.9780000   2.1650000  -0.9920000
   1.4540000   2.4470000  -2.6820000   0.5720000   1.2540000  -1.7070000
   2.1490000  -1.8410000  -6.3110000   3.0180000  -1.8830000  -5.7980000
   1.8530000  -3.0700000  -7.1370000   0.8230000  -3.2980000  -6.8640000
   2.6620000  -4.2170000  -6.6420000   3.7050000  -4.0640000  -6.0490000
   2.1180000  -2.7380000  -8.6740000   1.9860000  -3.6120000  -9.3110000
   3.1520000  -2.3940000  -8.7040000   1.1090000  -1.6260000  -9.1040000
   1.2320000  -0.6630000  -8.6100000   0.0800000  -1.9700000  -9.0030000
   1.4360000  -1.2970000 -10.5930000   2.3920000  -0.7740000 -10.6400000
   1.5910000  -2.2430000 -11.1120000   0.3140000  -0.4880000 -11.2930000
  -0.5150000  -1.1580000 -11.5220000   0.7520000  -0.1540000 -12.2330000
  -0.1350000   0.6810000 -10.4970000   0.5560000   1.4180000 -10.4730000
  -0.3260000   0.3420000  -9.5650000  -1.0060000   1.1200000 -10.7620000
   2.2110000  -5.3980000  -6.9610000   1.3120000  -5.5440000  -7.3960000
   2.8890000  -6.6640000  -6.7890000   2.2280000  -7.3130000  -7.3620000
   2.9570000  -7.2680000  -5.3030000   3.6500000  -8.2630000  -5.1880000
   4.1680000  -6.8270000  -7.6400000   4.9980000  -6.3090000  -7.1580000
   4.4120000  -7.8900000  -7.6300000   4.0210000  -6.1950000  -9.0630000
   3.5380000  -6.7720000 -10.0350000   4.5480000  -4.9670000  -9.2810000
   5.0440000  -4.3970000  -8.6120000   4.5260000  -4.6020000 -10.2230000
   2.2840000  -6.7420000  -4.3310000   1.5910000  -6.0390000  -4.5430000
   2.4650000  -7.0120000  -2.9090000   3.0480000  -7.9300000  -2.8360000
   1.1150000  -7.1950000  -2.2050000   0.1270000  -7.0140000  -2.8240000
   3.2930000  -6.0110000  -2.0850000   3.3400000  -6.3730000  -1.0580000
   2.7890000  -4.5570000  -2.1980000   2.9260000  -4.1830000  -3.2130000
   1.7050000  -4.4650000  -2.1190000   4.7000000  -6.0630000  -2.6080000
   5.2630000  -5.3980000  -1.9530000   4.7360000  -5.7640000  -3.6560000
   5.0820000  -7.0780000  -2.5020000   3.3800000  -3.5420000  -1.1850000
   2.7780000  -2.6340000  -1.2240000   3.4370000  -3.9140000  -0.1630000
   4.3950000  -3.3040000  -1.5030000   1.1130000  -7.5630000  -0.9330000
   2.0390000  -7.8330000  -0.6320000  -0.1010000  -7.8970000  -0.2120000
  -0.8210000  -8.2380000  -0.9570000  -0.6880000  -6.7140000   0.5210000
   0.0000000  -5.6940000   0.6860000   0.1810000  -9.0200000   0.7950000
   0.3770000  -9.9980000   0.3560000  -0.7530000  -9.2800000   1.2940000
   1.1930000  -8.7000000   1.7560000   2.0190000  -8.8780000   1.3000000
  -1.9420000  -6.8400000   0.9570000  -2.4410000  -7.6550000   0.6320000
  -2.5970000  -5.8630000   1.8440000  -2.6480000  -4.8920000   1.3540000
  -1.8700000  -5.8210000   3.2600000  -1.9970000  -4.7930000   3.9120000
  -4.1000000  -6.4060000   1.9090000  -4.4750000  -6.4320000   0.8860000
  -4.3480000  -7.3750000   2.3420000  -4.9050000  -5.4630000   2.7050000
  -4.6530000  -5.7240000   3.7330000  -4.5300000  -4.4430000   2.6160000
  -6.4880000  -5.4220000   2.6260000  -7.2030000  -5.8990000   1.7250000
  -7.0500000  -4.7470000   3.5380000  -1.2040000  -6.8580000   3.7370000
  -1.1380000  -7.6330000   3.0920000  -0.5470000  -6.7570000   5.1020000
  -1.1840000  -6.2350000   5.8170000   0.8400000  -6.1200000   4.9170000
   1.2310000  -5.4220000   5.8520000  -0.4000000  -8.1920000   5.6920000
   0.2400000  -8.7640000   5.0200000   0.0730000  -8.0430000   6.6630000
  -1.7530000  -8.8400000   5.9060000  -2.4940000  -8.0920000   6.1890000
  -1.6230000  -9.4970000   6.7660000  -2.3050000  -9.6540000   4.7280000
  -3.1910000 -10.5350000   4.8560000  -1.6950000  -9.6530000   3.6600000
   1.6300000  -6.3550000   3.9050000   1.2970000  -7.0330000   3.2350000
   2.8310000  -5.5820000   3.4760000   3.5480000  -5.6430000   4.2950000
   2.4640000  -4.0690000   3.2280000   3.1760000  -3.1840000   3.6150000
   3.4930000  -6.2810000   2.2870000   2.6730000  -6.6000000   1.6430000
   4.1190000  -5.5720000   1.7470000   4.3370000  -7.5090000   2.6130000
   3.8060000  -8.1260000   3.3390000   5.1990000  -7.1780000   3.1920000
   4.6340000  -8.4030000   1.4160000   5.8040000  -8.5140000   0.9920000
   3.6550000  -8.9810000   0.9150000   1.3520000  -3.8280000   2.5440000
   0.7960000  -4.5570000   2.1200000   0.9880000  -2.4270000   2.2920000
   1.8600000  -1.8420000   2.0000000   0.3020000  -1.7510000   3.4810000
   0.2990000  -0.5390000   3.6210000   0.1640000  -2.4340000   1.0740000
  -0.0640000  -1.4180000   0.7540000  -0.6850000  -3.1050000   1.2080000
   0.6790000  -2.9400000   0.2570000  -0.2330000  -2.4980000   4.4200000
  -0.4270000  -3.4780000   4.2710000  -0.5920000  -1.8930000   5.7650000
  -1.0240000  -0.8970000   5.6760000   0.6110000  -1.6490000   6.6540000
   0.5580000  -0.7950000   7.5270000  -1.5780000  -2.8630000   6.4280000
  -2.4770000  -3.0660000   5.8470000  -1.0970000  -3.8230000   6.6160000
  -1.9220000  -2.5860000   7.4250000   1.7170000  -2.3250000   6.4470000
   1.6370000  -3.0690000   5.7690000   3.0290000  -2.0210000   7.0030000
   2.9760000  -1.8210000   8.0730000   3.6680000  -0.8140000   6.3570000
   4.1830000   0.0080000   7.0750000   3.8610000  -3.3330000   6.9490000
   3.5160000  -4.0650000   7.6790000   3.8700000  -3.7280000   5.9340000
   5.3370000  -3.1170000   7.3560000   5.8770000  -2.6510000   6.5320000
   5.5090000  -2.5420000   8.2660000   6.0870000  -4.5230000   7.5190000
   5.5030000  -5.6610000   7.5150000   7.3410000  -4.6330000   7.7070000
   3.4760000  -0.7220000   5.0350000   3.0140000  -1.4580000   4.5210000
   3.7620000   0.5640000   4.3490000   4.8360000   0.7220000   4.4490000
   2.8980000   1.6770000   5.0560000   3.4990000   2.6510000   5.4780000
   3.5450000   0.3920000   2.8040000   2.5080000   0.1350000   2.5840000
   4.5830000  -0.6190000   2.1930000   5.5620000  -0.1690000   2.3550000
   4.6950000  -1.5440000   2.7600000   3.7980000   1.7460000   2.0930000
   3.7080000   1.6050000   1.0160000   4.7650000   2.1660000   2.3680000
   3.0880000   2.4430000   2.5380000   4.3460000  -0.8850000   0.6900000
   4.7080000  -0.0800000   0.0510000   3.2740000  -0.9910000   0.5230000
   4.8150000  -1.8410000   0.4570000   1.5890000   1.6190000   5.0080000
   1.1740000   0.9250000   4.4040000   0.6320000   2.5600000   5.6770000
   0.8810000   3.5210000   5.2270000   0.9270000   2.9010000   7.1840000
   1.0400000   4.0970000   7.4150000  -0.7890000   2.1770000   5.4610000
  -1.3890000   3.0780000   5.5810000  -0.8980000   1.7220000   4.4760000
  -1.0730000   1.4550000   6.2270000   1.0930000   1.9090000   8.0680000
   0.9730000   1.0000000   7.6440000   1.3820000   2.1300000   9.5610000
   0.6230000   2.7970000   9.9710000   2.6990000   2.8450000   9.7480000
   2.7490000   3.7870000  10.4840000   1.3670000   0.9030000  10.4060000
   1.9010000   1.0830000  11.3390000   1.9160000   0.1240000   9.8780000
   0.0080000   0.3710000  10.7470000  -0.5100000   1.1720000  11.2760000
  -0.6040000   0.1550000   9.8720000  -0.0140000  -0.8110000  11.7090000
  -1.0380000  -1.0020000  12.0290000   0.4870000  -0.4040000  12.5870000
   0.8450000  -1.8770000  11.2800000   1.7260000  -1.9880000  11.7610000
   0.5020000  -2.9070000  10.4730000  -0.6180000  -2.8840000   9.7510000
  -0.6060000  -3.6150000   9.0550000  -1.2240000  -2.1040000   9.9640000
   1.3790000  -3.9350000  10.3550000   1.2040000  -4.6960000   9.7140000
   2.3090000  -3.8280000  10.7340000   3.6850000   2.3730000   8.9920000
   3.5720000   1.5940000   8.3590000   5.0300000   3.0280000   9.0060000
   5.3400000   3.0030000  10.0500000   4.9040000   4.5220000   8.5430000
   5.3540000   5.3630000   9.2910000   5.9940000   2.2000000   8.1280000
   5.5160000   2.1000000   7.1530000   6.9120000   2.7810000   8.0450000
   6.4070000   0.8690000   8.8400000   5.5530000   0.2350000   9.0800000
   6.9030000   1.1450000   9.7700000   7.3110000   0.0290000   7.9570000
   7.3130000  -0.9420000   8.4510000   6.8720000  -0.1500000   6.9760000
   8.7010000   0.5150000   7.9290000   9.1620000   0.5120000   8.9170000
   8.6510000   1.5490000   7.5880000   9.6150000  -0.2000000   6.9940000
  10.4750000  -0.4430000   7.4640000   9.7430000   0.3180000   6.1360000
   9.2830000  -1.1110000   6.7110000   4.1520000   4.8460000   7.4420000
   3.7460000   4.1200000   6.8690000   3.8890000   6.2780000   7.0980000
   4.7560000   6.8790000   7.3700000   2.7330000   7.0970000   7.7810000
   2.4950000   8.3010000   7.5790000   3.6570000   6.2640000   5.5530000
   3.4150000   7.2870000   5.2630000   2.8340000   5.6050000   5.2800000
   4.8660000   5.8790000   4.7540000   5.0520000   4.8380000   5.0190000
   4.4960000   5.9250000   3.2240000   3.7240000   5.1830000   3.0200000
   4.1290000   6.9120000   2.9400000   5.4130000   5.8140000   2.6450000
   6.0320000   6.8220000   5.0180000   5.6550000   7.8390000   5.1250000
   6.5180000   6.5510000   5.9560000   6.7250000   6.7770000   4.1780000
   2.0340000   6.4120000   8.7090000   2.1900000   5.4230000   8.5750000
   0.8680000   6.7970000   9.5250000   1.1320000   7.7250000  10.0320000
   0.6450000   5.9570000  10.1820000  -0.3530000   7.0780000   8.6300000
  -1.1490000   7.9740000   9.0130000  -0.4860000   6.3490000   7.5270000
   0.1440000   5.5850000   7.3280000  -1.4160000   6.6590000   6.4790000
  -1.0020000   6.4510000   5.4920000  -1.6850000   7.7150000   6.4640000
  -2.7100000   5.8780000   6.5200000  -3.0400000   5.2770000   7.5480000
  -3.4450000   5.9820000   5.4670000  -3.0180000   6.6100000   4.8010000
  -4.5180000   5.0970000   5.1890000  -5.3150000   5.6370000   4.6780000
  -4.7910000   4.5740000   6.1050000  -4.0300000   4.2250000   4.0340000
  -2.8910000   4.2290000   3.5660000  -4.8940000   3.2860000   3.6460000
  -5.7610000   3.2910000   4.1650000  -4.7510000   2.3540000   2.5560000
  -4.0230000   2.8790000   1.9370000  -6.1240000   2.1460000   1.7940000
  -7.2010000   2.3130000   2.4240000  -4.1240000   0.9910000   2.9050000
  -3.2180000   1.1150000   3.4980000  -3.8840000   0.1390000   1.6320000
  -4.8420000  -0.3050000   1.3610000  -3.3720000   0.7510000   0.8900000
  -5.0440000   0.1120000   3.8350000  -6.0340000   0.0650000   3.3800000
  -5.1070000   0.6850000   4.7590000  -4.6790000  -0.8660000   4.1470000
  -2.9120000  -1.0320000   1.9400000  -3.3260000  -1.6370000   2.7470000
  -1.9170000  -0.6810000   2.2140000  -2.7780000  -1.6400000   1.0460000
  -6.1120000   1.8940000   0.5070000  -5.1880000   1.8520000   0.1010000
  -7.2270000   1.4130000  -0.2970000  -7.9940000   0.8870000   0.2700000
  -6.8100000   0.4390000  -1.4030000  -5.7890000   0.5830000  -2.0850000
  -7.9820000   2.6180000  -0.9350000  -7.2700000   3.1870000  -1.5330000
  -8.3080000   3.2770000  -0.1300000  -9.1970000   2.3870000  -1.8140000
  -9.7260000   1.4910000  -1.4910000  -8.8720000   2.0680000  -2.8040000
 -10.1270000   3.6160000  -1.9080000  -9.9280000   4.6410000  -1.1920000
 -10.9860000   3.6740000  -2.7640000  -7.7520000  -0.4600000  -1.7060000
  -8.6380000  -0.3960000  -1.2250000  -7.5210000  -1.4520000  -2.7990000
  -6.4690000  -1.5910000  -3.0500000  -8.2590000  -0.9530000  -4.0650000
  -9.4260000  -0.6170000  -4.0390000  -7.9440000  -2.8750000  -2.3430000
  -9.0210000  -2.9590000  -2.1950000  -7.3710000  -2.9720000  -1.4210000
  -7.4680000  -3.9970000  -3.3330000  -7.9090000  -3.6490000  -4.2670000
  -6.3880000  -4.0770000  -3.4590000  -8.0930000  -5.3600000  -2.8170000
  -9.1800000  -5.3610000  -2.9050000  -7.8150000  -5.4280000  -1.7650000
  -7.5330000  -6.6370000  -3.4800000  -7.6450000  -7.4550000  -2.7680000
  -6.4470000  -6.5450000  -3.4720000  -8.0530000  -6.8850000  -4.8140000
  -9.0530000  -6.7680000  -4.8940000  -7.6760000  -6.0790000  -5.2910000
  -7.7060000  -7.7090000  -5.2840000  -7.5390000  -0.9360000  -5.2230000
  -6.5700000  -1.2100000  -5.1400000  -7.9700000  -0.5710000  -6.5790000
  -9.0540000  -0.4660000  -6.6190000  -7.6270000  -1.7320000  -7.5020000
  -6.6710000  -1.5520000  -8.2810000  -7.4570000   0.8060000  -7.0800000
  -6.3690000   0.7370000  -7.1010000  -8.0170000   1.2000000  -8.4170000
  -9.0640000   1.5020000  -8.4300000  -7.8420000   0.3300000  -9.0500000
  -7.4300000   2.0480000  -8.7720000  -7.9610000   1.9180000  -6.1100000
  -7.5690000   2.8660000  -6.4790000  -7.6750000   1.7560000  -5.0710000
  -9.0490000   1.8470000  -6.1160000  -8.3220000  -2.8540000  -7.2680000
  -8.8870000  -2.9820000  -6.4410000  -8.0200000  -4.1040000  -8.0420000
  -8.0770000  -3.9370000  -9.1180000  -8.6870000  -4.9470000  -7.8600000
  -6.5800000  -4.4330000  -7.6960000  -6.2880000  -4.8510000  -6.5870000
  -5.6450000  -4.3440000  -8.6620000  -6.0960000  -4.1420000  -9.5430000
  -4.2220000  -4.7280000  -8.6200000  -4.1090000  -5.6410000  -8.0350000
  -3.2380000  -3.6890000  -8.0380000  -2.0960000  -4.0220000  -7.6280000
  -3.8460000  -5.0580000 -10.0780000  -2.7760000  -4.8800000 -10.1890000
  -4.3230000  -4.4740000 -10.8650000  -4.1760000  -6.3950000 -10.4520000
  -3.9360000  -7.3720000  -9.6900000  -4.8260000  -6.5890000 -11.4960000
  -3.6570000  -2.4320000  -7.9910000  -4.6120000  -2.2710000  -8.2790000
  -2.9140000  -1.4720000  -7.2270000  -1.8580000  -1.7410000  -7.1920000
  -3.4850000  -1.4070000  -5.7160000  -4.6990000  -1.3790000  -5.5200000
  -3.0040000  -0.0570000  -7.8360000  -4.0730000   0.1280000  -7.7280000
  -2.3520000   0.5130000  -7.1740000  -2.5820000  -0.1720000  -9.1770000
  -3.1670000  -0.8770000  -9.4650000  -2.6120000  -1.4500000  -4.7350000
  -1.6430000  -1.5570000  -5.0000000  -2.8590000  -0.7760000  -3.4630000
  -3.8940000  -0.8710000  -3.1340000  -2.4440000   0.6150000  -3.4430000
  -1.4010000   1.0130000  -3.9120000  -2.1070000  -1.5300000  -2.3240000
  -2.2620000  -0.8700000  -1.4710000  -1.0380000  -1.5850000  -2.5320000
  -2.6480000  -2.8780000  -1.9720000  -3.7460000  -2.9950000  -1.0470000
  -4.1390000  -2.1960000  -0.4350000  -2.2490000  -3.9900000  -2.7280000
  -1.4110000  -3.8300000  -3.3910000  -4.3500000  -4.1980000  -0.8870000
  -5.2640000  -4.3070000  -0.3240000  -2.9720000  -5.2070000  -2.6350000
  -2.7020000  -6.0910000  -3.1940000  -4.0740000  -5.2720000  -1.7570000
  -4.8130000  -6.4040000  -1.8510000  -5.5120000  -6.4840000  -1.1970000
  -3.2230000   1.4950000  -2.7320000  -4.1240000   1.2500000  -2.3490000
  -2.9940000   2.9770000  -2.6790000  -2.0270000   3.1760000  -3.1430000
  -2.7610000   3.3990000  -1.2490000  -3.5250000   2.9960000  -0.3240000
  -4.0500000   3.8310000  -3.3480000  -5.0450000   3.7920000  -2.9030000
  -4.0970000   3.4360000  -4.8200000  -3.0500000   3.3180000  -5.0980000
  -4.5580000   2.4530000  -4.9180000  -3.7400000   5.2970000  -3.1390000
  -4.5240000   5.9200000  -3.5690000  -3.7410000   5.6020000  -2.0930000
  -2.7910000   5.5150000  -3.6290000  -4.8620000   4.4510000  -5.6240000
  -4.9460000   3.9860000  -6.6060000  -4.3370000   5.4020000  -5.7090000
  -5.8160000   4.6630000  -5.1410000  -1.6770000   4.1210000  -0.9510000
  -1.1880000   4.3980000  -1.7900000  -1.2980000   4.4970000   0.4790000
  -2.0440000   4.0270000   1.1200000  -1.5180000   6.0020000   0.5640000
  -1.1010000   6.6690000  -0.4140000   0.0920000   4.1040000   0.9330000
   0.8490000   4.3860000   0.2010000   0.3720000   4.4870000   2.4030000
   0.1370000   5.5180000   2.6670000  -0.3000000   3.8820000   3.0120000
   1.4350000   4.2740000   2.5140000   0.0200000   2.5600000   0.9720000
  -0.4380000   2.0860000   0.1030000   1.0810000   2.3270000   0.8860000
  -0.5110000   2.1020000   1.8060000  -2.0810000   6.5470000   1.5940000
  -2.1390000   5.9190000   2.3840000  -2.5130000   7.9130000   1.7780000
  -2.4720000   8.5300000   0.8800000  -1.6390000   8.5670000   2.8940000
  -0.8660000   9.5420000   2.6010000  -3.9960000   7.8160000   2.2440000
  -4.3550000   8.7720000   2.6240000  -4.0880000   7.0330000   2.9960000
  -4.8570000   7.3060000   1.0720000  -4.8990000   7.9680000  -0.1410000
  -4.4360000   8.9430000  -0.1000000  -5.7420000   6.2560000   1.2010000
  -5.7250000   5.6140000   2.0700000  -5.7510000   7.6460000  -1.2480000
  -5.9030000   8.1440000  -2.1940000  -6.7280000   5.9860000   0.2520000
  -7.2950000   5.0730000   0.3570000  -6.7490000   6.6230000  -0.9880000
  -7.6790000   6.3160000  -1.8500000  -8.3400000   5.7540000  -1.4400000
  -1.6950000   8.1550000   4.0570000   6.2060000   2.0510000   0.4810000
   6.2770000   0.6360000  -0.1330000   7.6220000   0.4560000  -0.7620000
   7.5580000   0.3640000  -2.3030000   6.1380000  -0.0140000  -2.6810000
   5.6430000   0.8760000  -3.7230000   5.6350000   2.3200000  -3.3210000
   6.0810000  -1.3890000  -3.1780000   5.2820000  -2.1830000  -2.6030000
   4.3530000  -2.6020000  -3.2530000   5.4800000  -2.5740000  -1.1000000
   6.6420000  -3.1570000  -0.7270000   6.8620000  -3.6350000   0.6140000
   6.1640000  -4.7140000   1.1110000   6.3880000  -5.2110000   2.3440000
   7.3480000  -4.6090000   3.1250000   7.6060000  -5.0210000   4.3840000
   7.7020000  -3.9970000   5.3590000   8.0310000  -3.5200000   2.6800000
   7.7900000  -3.0370000   1.4110000   6.2098067   1.9751332   1.5783740
   7.0758234   2.6379562   0.1510157   5.2817904   2.5479375   0.1510157
   6.1325544  -0.1176695   0.6551102   5.4885592   0.5149014  -0.8904274
   8.2552070   1.3125899  -0.4875867   8.0350126  -0.4938623  -0.3916188
   7.8186851   1.3356106  -2.7479900   8.2700496  -0.3872843  -2.6752328
   5.5143955   0.0752786  -1.7792535   6.2844502   0.7648511  -4.6096722
   4.6000756   0.5901665  -3.9245140   5.6345840   2.3950911  -2.2235661
   6.5304038   2.8172734  -3.7222122   4.7341414   2.8073218  -3.7222122
   4.6888914  -2.3782331  -0.3612020   7.4443151  -3.2697031  -1.4710353
   5.3971086  -5.1864514   0.4795990   5.8182550  -6.0752374   2.7161348
   7.6602390  -4.4424510   6.3639027   8.6543614  -3.4607008   5.2349393
   6.8659135  -3.2930339   5.2349393   8.7708731  -3.0277635   3.3282985
   8.3496567  -2.1652078   1.0411856
