
  505  0.0000000e+00
  -6.4900000  -2.6400000  12.1300000  -6.6900000  -2.0900000  12.9600000
  -7.0700000  -3.4700000  12.1800000  -6.7400000  -2.1700000  11.2800000
  -5.0400000  -3.0300000  12.1900000  -4.9400000  -3.6600000  13.0800000
  -4.7300000  -3.3800000  11.2100000  -4.1300000  -1.7900000  12.2000000
  -4.5300000  -0.7000000  11.7700000  -2.9000000  -1.9500000  12.6900000
  -2.1100000  -0.8000000  13.0400000  -2.7900000  -0.0100000  13.3600000
  -1.3200000  -0.1300000  11.9300000  -0.7600000   0.9300000  12.3300000
  -1.2000000  -1.2500000  14.2700000  -1.3700000  -0.7000000  15.2000000
  -0.2100000  -0.9200000  13.9500000  -1.6100000  -2.7100000  14.5600000
  -0.7300000  -3.3100000  14.7900000  -2.2900000  -2.9200000  15.3800000
  -2.2400000  -3.0700000  13.2300000  -1.4900000  -3.4800000  12.5700000
  -2.9600000  -3.8700000  13.4200000  -1.3500000  -0.6400000  10.7000000
  -2.0100000  -1.4000000  10.6200000  -0.5600000  -0.1600000   9.5300000
  -0.0200000   0.7300000   9.8500000  -1.2700000   0.2900000   8.3400000
  -0.6000000   1.0000000   7.6500000   0.5000000  -1.2400000   9.1800000
  -0.0600000  -2.1300000   8.9000000   1.3200000  -0.8400000   8.5900000
   1.3900000  -1.6200000  10.3600000   2.1600000  -0.6800000  10.9400000
   2.4500000   0.1900000  10.3500000   1.0500000  -2.7200000  11.2300000
   0.3600000  -3.4400000  10.8200000   2.6600000  -0.6600000  12.2500000
   3.2400000   0.1400000  12.7000000   1.4900000  -2.7800000  12.5800000
   1.0400000  -3.5300000  13.2100000   2.4300000  -1.8300000  13.0500000
   2.8100000  -1.9000000  14.0600000  -2.5400000  -0.0600000   8.1900000
  -2.9000000  -0.6600000   8.9200000  -3.3300000   0.1400000   6.9700000
  -3.0400000  -0.4700000   6.1200000  -3.3100000   1.6100000   6.4900000
  -3.0400000   1.8100000   5.3300000  -4.7500000  -0.2900000   7.3000000
  -4.8500000  -1.3100000   7.6600000  -5.2700000   0.3400000   8.0200000
  -5.5700000  -0.3800000   6.0700000  -5.7400000   0.6500000   5.7500000
  -5.0800000  -1.1100000   5.4200000  -6.9500000  -0.9600000   6.3200000
  -7.7500000  -1.0300000   5.3700000  -7.3100000  -1.4500000   7.3900000
  -3.6000000   2.6200000   7.3000000  -4.0700000   2.3700000   8.1600000
  -3.4300000   4.0700000   7.1400000  -4.1800000   4.4100000   6.4300000
  -2.0700000   4.4700000   6.4900000  -2.1200000   5.4300000   5.7100000
  -3.8900000   4.7800000   8.3600000  -3.1200000   4.8500000   9.1300000
  -4.8100000   4.3200000   8.7400000  -4.0800000   5.8300000   8.1200000
  -0.9700000   3.8600000   6.8400000  -1.0900000   3.0300000   7.4000000
   0.3500000   4.2100000   6.2700000   0.2400000   5.2400000   5.9300000
   0.5400000   3.3800000   5.0200000   0.8000000   3.9300000   3.9700000
   1.4600000   4.0200000   7.3100000   1.2200000   3.2000000   7.9800000
   1.3800000   4.9100000   7.9300000   2.4400000   3.9700000   6.8300000
   0.4400000   2.0600000   5.1100000   0.0400000   1.7200000   5.9700000
   0.5300000   1.0700000   4.0100000   1.5900000   0.9100000   3.7800000
  -0.1800000   1.7000000   2.7900000   0.5100000   1.9200000   1.7400000
  -0.1200000  -0.2500000   4.3800000  -1.0700000   0.0400000   4.8200000
  -0.3900000  -1.1500000   3.1300000  -1.2300000  -0.7900000   2.5500000
  -0.5500000  -2.1900000   3.4300000   0.4700000  -1.0500000   2.4700000
   0.7800000  -0.9900000   5.3400000   1.1300000  -0.3600000   6.1500000
   1.6800000  -1.3600000   4.8500000   0.3300000  -1.8400000   5.8600000
  -1.4200000   2.2000000   2.8000000  -1.9400000   2.1700000   3.6700000
  -2.2000000   2.6800000   1.6100000  -1.9200000   2.0600000   0.7600000
  -1.8500000   4.1200000   1.2800000  -1.9000000   4.4400000   0.1400000
  -3.7300000   2.5000000   1.7800000  -4.2400000   2.8900000   0.9000000
  -4.0900000   3.1300000   2.5900000  -4.1200000   1.0800000   2.2200000
  -3.6300000   0.7800000   3.1400000  -3.7000000   0.3500000   1.5200000
  -5.6800000   0.8100000   2.3800000  -6.0200000   1.2100000   3.3300000
  -6.1800000   1.3500000   1.5800000  -6.0000000  -0.6600000   2.2700000
  -6.3100000  -1.1100000   3.1200000  -6.0900000  -1.4900000   1.2700000
  -5.7500000  -1.0500000   0.0900000  -5.8800000  -1.6300000  -0.7300000
  -5.4600000  -0.0800000   0.0600000  -6.4500000  -2.6700000   1.3000000
  -6.6700000  -3.1000000   2.1800000  -6.4800000  -3.1400000   0.4100000
  -1.4300000   5.0200000   2.2000000  -1.3900000   4.6300000   3.1300000
  -0.8900000   6.3600000   1.8800000  -1.6500000   6.9000000   1.3000000
   0.4200000   6.0600000   1.0700000   0.6900000   6.7700000   0.0800000
  -0.6200000   7.0200000   3.2000000  -1.5100000   7.0800000   3.8200000
  -0.0200000   6.3300000   3.7900000  -0.0200000   8.4500000   3.0700000
   0.2400000   8.7600000   4.0900000   0.9000000   8.3900000   2.5000000
  -0.9300000   9.4500000   2.4200000  -1.8100000   9.2100000   1.5900000
  -0.6300000  10.6500000   2.5900000   1.2600000   5.0900000   1.4200000
   0.9800000   4.4900000   2.1800000   2.5100000   4.9000000   0.6700000
   2.9000000   5.9000000   0.4800000   2.2500000   4.2200000  -0.6400000
   2.9400000   4.6200000  -1.6100000   3.4000000   4.0200000   1.5300000
   4.3300000   3.8500000   0.9900000   2.9300000   3.0400000   1.6500000
   3.8400000   4.6200000   2.8600000   2.9200000   4.9500000   3.3400000
   4.5800000   3.5700000   3.7200000   4.8200000   3.9900000   4.6900000
   5.4800000   3.2500000   3.1800000   4.0000000   2.6900000   4.0000000
   4.9000000   5.7000000   2.7500000   4.4400000   6.5200000   2.2100000
   5.2500000   6.0300000   3.7300000   5.7900000   5.3500000   2.2400000
   1.2100000   3.2900000  -0.7200000   0.7100000   3.0100000   0.1100000
   0.8600000   2.6500000  -2.0300000   1.7100000   2.1000000  -2.4600000
   0.2700000   3.6400000  -3.0200000   0.7100000   3.7100000  -4.1800000
  -0.1400000   1.5500000  -1.6800000  -0.2600000   0.7800000  -2.4400000
   0.2000000   1.1000000  -0.7500000  -1.0900000   2.0500000  -1.4900000
  -0.5400000   4.6300000  -2.5500000  -0.9000000   4.5600000  -1.6100000
  -1.1600000   5.5900000  -3.3300000  -1.6400000   5.1200000  -4.1900000
  -0.0700000   6.6100000  -3.7800000  -0.1500000   7.1100000  -4.8900000
  -2.2300000   6.3600000  -2.4400000  -1.8800000   6.5800000  -1.4300000
  -3.0000000   5.5900000  -2.4300000  -2.8900000   7.5800000  -3.0700000
  -3.5700000   7.3200000  -3.8800000  -2.1300000   8.2500000  -3.4800000
  -3.5400000   8.5100000  -2.0600000  -4.1200000   9.2800000  -2.5700000
  -4.2100000   7.8800000  -1.4800000  -2.5700000   9.2300000  -1.2300000
  -2.4100000   8.9000000  -0.2900000  -2.0100000  10.3500000  -1.5400000
  -2.1100000  10.9900000  -2.6700000  -2.5000000  10.6200000  -3.5300000
  -1.6700000  11.8900000  -2.6400000  -1.3600000  10.9700000  -0.6200000
  -0.8100000  11.7900000  -0.8300000  -1.5400000  10.6800000   0.3300000
   0.9200000   6.9500000  -2.9100000   0.8600000   6.4800000  -2.0200000
   2.0200000   7.8700000  -3.1500000   1.6300000   8.7500000  -3.6700000
   2.9800000   7.2100000  -4.1500000   3.6500000   7.9300000  -4.9200000
   2.7000000   8.3600000  -1.8900000   3.6700000   8.7800000  -2.1500000
   2.8600000   7.5100000  -1.2300000   1.8400000   9.4400000  -1.2300000
   1.8000000  10.3700000  -1.8100000   0.8400000   9.0100000  -1.1600000
   2.3100000   9.8700000   0.1200000   3.3500000  10.1800000   0.1000000
   2.2600000   9.0200000   0.8000000   1.5400000  11.0800000   0.6400000
   0.7600000  10.9100000   1.2500000   1.8400000  12.3500000   0.4400000
   2.9300000  12.6900000  -0.1700000   3.1500000  13.6500000  -0.4000000
   3.5400000  12.0300000  -0.6400000   1.1000000  13.2500000   1.0100000
   1.4300000  14.1900000   0.8400000   0.3100000  13.0500000   1.6100000
   3.0100000   5.8700000  -4.1800000   2.3400000   5.3300000  -3.6500000
   3.7500000   5.1200000  -5.2000000   4.6800000   5.6700000  -5.3300000
   3.0100000   5.1800000  -6.5500000   3.6600000   5.5500000  -7.5400000
   4.1100000   3.7000000  -4.7800000   4.7800000   3.7600000  -3.9200000
   4.7500000   3.2200000  -5.5200000   3.2300000   3.0800000  -4.6000000
   1.6700000   4.9500000  -6.6500000   1.1500000   4.5100000  -5.9000000
   0.9100000   5.2000000  -7.9100000   1.3400000   4.5900000  -8.7000000
   0.9100000   6.6000000  -8.4800000   0.9500000   6.7400000  -9.7000000
  -0.5800000   4.7400000  -7.5900000  -0.9900000   5.2500000  -6.7200000
  -1.3200000   4.8200000  -8.3800000  -0.6100000   3.6800000  -7.3200000
   0.9900000   7.6600000  -7.6700000   1.0500000   7.3800000  -6.7000000
   1.2900000   9.0700000  -8.0600000   0.5500000   9.3600000  -8.8100000
   2.6700000   9.2900000  -8.7200000   2.9100000  10.2000000  -9.5200000
   1.1900000   9.8200000  -6.7100000   1.8700000   9.4100000  -5.9600000
   0.1700000   9.8500000  -6.3000000   1.5100000  10.8600000  -6.8100000
   3.6400000   8.4800000  -8.2900000   3.4600000   7.7200000  -7.6600000
   4.9800000   8.4300000  -8.9900000   5.1000000   9.3900000  -9.4900000
   4.8900000   7.4400000 -10.2000000   5.9000000   7.0600000 -10.8100000
   6.0800000   8.0800000  -8.0400000   7.0500000   7.9300000  -8.5300000
   6.2600000   8.9500000  -7.4100000   5.8700000   7.2800000  -7.3300000
   3.7200000   6.9100000 -10.5200000   2.9300000   7.2900000 -10.0100000
   3.5000000   6.0900000 -11.6900000   4.1200000   6.4000000 -12.5400000
   2.4500000   6.0700000 -11.9800000   3.9700000   4.6400000 -11.4900000
   4.0400000   3.9100000 -12.5000000   4.1700000   4.2100000 -10.2600000
   4.0000000   4.8900000  -9.5300000   4.5400000   2.8300000  -9.9100000
   4.6000000   2.1600000 -10.7600000   3.4800000   2.2700000  -8.9400000
   3.4000000   2.6000000  -7.7600000   5.9000000   2.8800000  -9.1600000
   5.9300000   3.6500000  -8.3900000   6.9200000   3.1900000 -10.3700000
   7.2100000   2.3100000 -10.9600000   6.5200000   3.8200000 -11.1600000
   6.3200000   1.6100000  -8.4300000   5.7700000   1.4500000  -7.5000000
   6.2600000   0.7000000  -9.0200000   7.2800000   1.8500000  -7.9700000
   8.2200000   3.8500000  -9.9300000   8.8800000   3.9500000 -10.7900000
   8.0800000   4.8700000  -9.5800000   8.6800000   3.3000000  -9.1100000
   2.5500000   1.4900000  -9.5200000   2.6500000   1.3900000 -10.5200000
   1.2500000   1.3100000  -8.9600000   1.1600000   2.0700000  -8.1900000
   1.1000000  -0.0700000  -8.3400000   1.2000000  -1.1100000  -9.0100000
   0.0800000   1.5900000  -9.9100000   0.2200000   2.6600000 -10.0700000
   0.1700000   1.0100000 -10.8300000  -1.3300000   1.4700000  -9.3900000
  -1.2700000   1.9100000  -8.3900000  -1.6200000   0.4200000  -9.3600000
  -2.3600000   2.3100000 -10.2200000  -1.9900000   3.1600000 -11.0600000
  -3.5500000   2.0300000  -9.9800000   1.0100000  -0.1000000  -7.0000000
   1.1600000   0.8000000  -6.5700000   0.6400000  -1.2700000  -6.2700000
   1.2500000  -2.1100000  -6.6000000  -0.8600000  -1.6100000  -6.6200000
  -1.6900000  -0.7300000  -6.7600000   0.9100000  -1.0600000  -4.7600000
   0.5800000  -0.0500000  -4.5500000   0.1500000  -1.7300000  -4.3300000
   2.3300000  -1.2800000  -4.1800000   3.1000000  -0.8300000  -4.8100000
   2.4000000  -0.7200000  -2.7400000   1.8000000  -1.2300000  -1.9900000
   2.2600000   0.3600000  -2.8000000   3.4000000  -0.7800000  -2.3000000
   2.6400000  -2.8100000  -4.0900000   2.3600000  -3.2400000  -5.0500000
   2.0900000  -3.3000000  -3.2800000   3.7000000  -2.8900000  -3.8900000
  -1.2800000  -2.9400000  -6.6600000  -0.6400000  -3.7100000  -6.5900000
  -2.7100000  -3.4800000  -6.6300000  -3.2500000  -2.6500000  -7.1000000
  -3.2700000  -3.7900000  -5.2700000  -2.4900000  -4.1500000  -4.3900000
  -2.9500000  -4.6800000  -7.4900000  -4.0100000  -4.9400000  -7.5400000
  -2.0300000  -5.7000000  -7.0900000  -1.1400000  -5.3500000  -7.1500000
  -2.4500000  -4.3900000  -8.9400000  -1.4300000  -4.0200000  -8.9400000
  -3.1700000  -3.6700000  -9.3300000  -2.5000000  -5.3300000  -9.4900000
  -4.5700000  -3.7800000  -4.9700000  -5.3300000  -3.5900000  -5.6200000
  -5.1000000  -4.2700000  -3.7000000  -4.6800000  -3.7100000  -2.8600000
  -4.7300000  -5.7700000  -3.4400000  -4.6000000  -6.1800000  -2.3200000
  -6.5600000  -4.0000000  -3.7000000  -6.8400000  -3.0300000  -4.1000000
  -7.0400000  -4.7500000  -4.3400000  -7.1300000  -4.0700000  -2.2700000
  -6.7200000  -3.2400000  -1.4200000  -8.2100000  -4.6400000  -2.1200000
  -4.5200000  -6.6200000  -4.4700000  -4.4700000  -6.2700000  -5.4100000
  -4.0400000  -7.9800000  -4.3100000  -4.7300000  -8.4600000  -3.6200000
  -2.6200000  -8.0400000  -3.6600000  -2.2500000  -8.9700000  -2.9800000
  -3.9200000  -8.6300000  -5.7000000  -4.8300000  -8.3900000  -6.2500000
  -3.0900000  -8.1700000  -6.2500000  -3.6600000 -10.1800000  -5.6400000
  -4.6200000 -10.6600000  -5.4900000  -3.0800000 -10.3700000  -4.7300000
  -2.9200000 -10.6600000  -6.9000000  -1.6600000 -10.7800000  -6.9300000
  -3.5400000 -10.8200000  -7.9500000  -1.8000000  -6.9800000  -3.8800000
  -2.1400000  -6.2500000  -4.4900000  -0.4600000  -6.8200000  -3.3500000
   0.0800000  -7.7500000  -3.1900000  -0.5100000  -6.0900000  -1.9800000
   0.3700000  -6.3800000  -1.1600000   0.3300000  -6.0600000  -4.4000000
  -0.1800000  -5.1300000  -4.6600000   1.3100000  -5.7500000  -4.0400000
   0.6000000  -6.8500000  -5.6800000   1.3600000  -7.5600000  -5.3600000
  -0.2800000  -7.3500000  -6.0800000   1.3000000  -6.0300000  -6.8200000
   0.9900000  -4.8200000  -7.0600000   2.3100000  -6.5400000  -7.3100000
  -1.4600000  -5.1700000  -1.7200000  -2.0200000  -4.7700000  -2.4600000
  -1.6900000  -4.6600000  -0.3400000  -0.6900000  -4.3300000  -0.0400000
  -2.1500000  -5.6300000   0.7600000  -1.7100000  -5.5600000   1.9500000
  -2.6100000  -3.3800000  -0.3800000  -3.5700000  -3.6700000  -0.7900000
  -2.0500000  -2.2900000  -1.3400000  -1.0800000  -1.9200000  -1.0100000
  -1.8700000  -2.8300000  -2.2700000  -2.6400000  -2.8800000   1.0200000
  -2.7000000  -1.7900000   0.9600000  -3.4100000  -3.3100000   1.6600000
  -1.6600000  -3.0900000   1.4700000  -3.0100000  -1.1500000  -1.7600000
  -2.5700000  -0.7000000  -2.6400000  -3.1600000  -0.5400000  -0.8600000
  -3.9400000  -1.6500000  -2.0400000  -2.9700000  -6.5800000   0.3900000
  -3.4700000  -6.6000000  -0.4900000  -3.3200000  -7.8000000   1.1900000
  -3.8000000  -7.4900000   2.1300000  -2.1100000  -8.6700000   1.5800000
  -2.1500000  -9.3000000   2.6300000  -4.2600000  -8.7000000   0.3300000
  -3.8000000  -8.9200000  -0.6400000  -4.3200000  -9.6200000   0.9200000
  -5.7000000  -8.2000000   0.2200000  -6.1100000  -8.7500000  -0.6300000
  -5.6600000  -7.1600000  -0.1100000  -6.6300000  -8.3900000   1.3800000
  -6.4300000  -9.3800000   2.2000000  -7.5300000  -7.5200000   1.4800000
  -1.0200000  -8.7000000   0.7700000  -1.1200000  -8.1200000  -0.0500000
   0.2300000  -9.3900000   1.0700000  -0.1600000 -10.3400000   1.4300000
   1.0100000  -8.6200000   2.1300000   1.4100000  -9.1300000   3.1500000
   1.0400000  -9.6300000  -0.2300000   2.0500000  -9.9900000  -0.0600000
   1.1400000  -8.7200000  -0.8300000   0.4100000 -10.4900000  -1.3400000
  -0.5100000 -10.0100000  -1.6600000   1.1700000 -10.6200000  -2.1100000
  -0.0200000 -11.8400000  -0.8000000  -1.2200000 -11.9800000  -0.3000000
   0.7200000 -12.8500000  -0.9900000   1.1900000  -7.3800000   1.9200000
   0.9100000  -7.0100000   1.0200000   1.8000000  -6.3900000   2.9000000
   2.8300000  -6.7100000   3.0900000   1.1300000  -6.3100000   4.2900000
   1.6600000  -5.8300000   5.2400000   1.8500000  -4.9600000   2.1900000
   1.0300000  -4.9000000   1.4700000   3.2100000  -4.9700000   1.4800000
   3.1900000  -5.9500000   1.0100000   4.0700000  -4.8400000   2.1300000
   1.8700000  -3.7600000   3.0600000   2.8100000  -3.7200000   3.6000000
   1.6500000  -2.9000000   2.4400000   0.9400000  -3.7800000   3.6300000
   3.4500000  -3.9200000   0.4500000   4.4400000  -4.0700000   0.0100000
   3.3400000  -2.9100000   0.8400000   2.8000000  -4.1800000  -0.3800000
  -0.1700000  -6.8000000   4.4200000  -0.6200000  -7.1300000   3.5800000
  -1.0100000  -6.9200000   5.6500000  -0.5300000  -6.3600000   6.4500000
  -1.0300000  -8.3500000   6.2600000  -1.8600000  -8.6100000   7.1200000
  -2.3400000  -6.2800000   5.4900000  -3.0200000  -6.4900000   6.3200000
  -2.7200000  -6.7900000   4.6100000  -2.3100000  -4.8000000   5.3400000
  -1.4100000  -4.4700000   4.8100000  -3.5100000  -4.1800000   4.7000000
  -4.3000000  -4.1300000   5.4400000  -3.3900000  -3.1200000   4.4400000
  -3.9000000  -4.8100000   3.9000000  -2.1700000  -4.1200000   6.7500000
  -2.9900000  -4.4400000   7.4000000  -2.3300000  -3.0600000   6.5800000
  -1.2600000  -4.3900000   7.2800000  -0.0900000  -9.2400000   5.8700000
   0.5900000  -8.8900000   5.2000000   0.1900000 -10.5900000   6.4600000
  -0.6200000 -10.8900000   7.1300000   1.3800000 -10.6500000   7.4100000
   1.3400000 -11.3300000   8.5000000   0.4300000 -11.6100000   5.2700000
   0.8400000 -12.5200000   5.7200000   1.2500000 -11.2200000   4.6600000
  -0.9000000 -11.9500000   4.5400000  -1.3100000 -11.0300000   4.1300000
  -1.6000000 -12.4600000   5.2000000  -0.6300000 -12.8700000   3.3600000
  -0.0600000 -12.2700000   2.6500000  -0.0900000 -13.7200000   3.7900000
  -1.9000000 -13.3300000   2.6700000  -2.5500000 -13.8400000   3.3800000
  -1.8500000 -14.1000000   1.8900000  -2.6500000 -12.2000000   2.0500000
  -2.3900000 -12.1500000   1.0800000  -2.4300000 -11.3800000   2.6000000
  -3.6300000 -12.4400000   2.0500000   2.3800000  -9.9500000   7.0700000
   5.5370000  -1.3010000   6.0920000   5.8900000  -1.8250000   4.7800000
   5.6540000  -1.0480000   3.5910000   6.8070000  -0.6540000   2.9880000
   6.7410000   0.1090000   1.8030000   5.5470000   0.4680000   1.2110000
   5.5550000   1.2320000  -0.0130000   4.6630000   1.0270000  -0.8470000
   6.6820000   2.1720000  -0.3110000   6.8960000   3.3700000   0.3470000
   7.9870000   4.2170000   0.0100000   8.8810000   3.8890000  -0.9650000
   8.7170000   2.6950000  -1.6260000   7.6090000   1.8750000  -1.3080000
   4.3670000   0.0520000   1.8220000   3.1750000   0.3960000   1.2760000
   4.4180000  -0.7170000   3.0170000   5.9701720  -1.9440088   6.8723215
   5.9319753  -0.2797798   6.1973743   4.4422004  -1.2833876   6.1973743
   7.7812570  -0.9272238   3.4194765   7.6808501   0.4313566   1.3310170
   6.2067949   3.6739186   1.1486419   8.1133586   5.1655504   0.5524810
   9.7130936   4.5629906  -1.2167081   9.4393217   2.3806083  -2.3937299
   7.4709358   0.9470745  -1.8823627   2.3316107   0.1040845   1.7044622
   3.4849643  -1.0533394   3.4927313
