
  474  0.0000000e+00
 -12.0050000  -2.7560000  12.0100000 -12.5430000  -2.6430000  12.8570000
 -12.5820000  -2.5020000  11.2210000 -11.2100000  -2.1390000  12.1020000
 -11.3800000  -4.0320000  11.8480000 -10.8990000  -4.2840000  12.7930000
 -12.0950000  -4.8440000  11.7130000 -10.2830000  -4.0720000  10.7510000
  -9.8890000  -3.0800000  10.1610000  -9.8440000  -5.2980000  10.4370000
 -10.1690000  -6.0530000  11.0230000  -8.8690000  -5.6440000   9.4840000
  -7.8670000  -5.2800000   9.7130000  -9.2570000  -5.1110000   8.0750000
  -8.3940000  -4.6360000   7.3230000  -8.6530000  -7.1670000   9.5310000
  -8.5850000  -7.4980000  10.5670000  -7.6450000  -7.4470000   9.2230000
  -9.4540000  -7.7240000   9.0450000 -10.4900000  -5.1770000   7.6520000
 -11.1540000  -5.6770000   8.2270000 -10.9180000  -4.6860000   6.3340000
 -10.2840000  -5.2530000   5.6530000 -10.6080000  -3.2270000   6.1930000
  -9.9690000  -2.7850000   5.2220000 -12.3840000  -5.0630000   6.0380000
 -12.6530000  -4.6960000   5.0470000 -12.5130000  -6.1450000   6.0240000
 -13.0170000  -4.7110000   6.8530000 -11.0000000  -2.4410000   7.2030000
 -11.4920000  -2.8440000   7.9880000 -10.9200000  -0.9580000   7.2040000
 -11.3730000  -0.6250000   6.2710000  -9.4390000  -0.4690000   7.0640000
  -9.0210000   0.4330000   6.2880000 -11.6150000  -0.3140000   8.4030000
 -12.6790000  -0.5450000   8.3510000 -11.4930000   0.7690000   8.4380000
 -11.1440000  -0.6620000   9.3220000  -8.5960000  -1.0310000   8.0200000
  -9.0870000  -1.6290000   8.6690000  -7.1330000  -0.8060000   8.0520000
  -6.8520000   0.2470000   8.0120000  -6.4220000  -1.3420000   6.7660000
  -5.4610000  -0.7150000   6.2620000  -6.4810000  -1.4790000   9.3430000
  -7.1070000  -1.2400000  10.2040000  -5.4260000  -1.2370000   9.4710000
  -6.4610000  -2.5600000   9.2080000  -6.8610000  -2.4750000   6.1480000
  -7.6140000  -3.0000000   6.5680000  -6.4960000  -2.9340000   4.8220000
  -5.4090000  -3.0180000   4.8370000  -6.7750000  -2.0670000   3.6360000
  -5.8390000  -1.8560000   2.8700000  -6.8310000  -4.3700000   4.5440000
  -7.9060000  -4.5450000   4.5410000  -6.5880000  -4.4830000   3.4870000
  -6.0480000  -5.4080000   5.2880000  -5.0020000  -5.2620000   5.0200000
  -6.0650000  -5.0630000   6.3220000  -6.5150000  -6.7910000   5.1000000
  -7.6030000  -6.7240000   5.1370000  -6.2660000  -7.2140000   4.1270000
  -6.1260000  -7.6570000   6.2410000  -5.7300000  -7.2340000   7.0690000
  -6.0090000  -9.0070000   6.0580000  -6.7060000  -9.6200000   5.1500000
  -6.8120000 -10.6160000   5.2800000  -7.3400000  -9.0880000   4.5720000
  -5.2630000  -9.6930000   6.9080000  -4.7560000  -9.2190000   7.6420000
  -5.1940000 -10.6860000   6.7410000  -8.0000000  -1.6420000   3.4460000
  -8.6260000  -1.9620000   4.1710000  -8.4180000  -0.7740000   2.3810000
  -8.4200000  -1.2550000   1.4020000  -7.5170000   0.5150000   2.4180000
  -6.9090000   0.8350000   1.3940000  -9.8220000  -0.4430000   2.8050000
 -10.4830000  -1.3060000   2.7220000  -9.7780000  -0.1370000   3.8510000
 -10.1780000   0.3710000   2.1740000  -7.3590000   1.1760000   3.5520000
  -7.9390000   0.8880000   4.3270000  -6.5040000   2.3090000   3.8840000
  -6.6650000   3.1540000   3.2140000  -5.0500000   2.0550000   3.5180000
  -4.3430000   2.8310000   2.8930000  -6.7510000   2.7430000   5.3160000
  -6.5680000   1.9170000   6.0030000  -6.0000000   3.5210000   5.4550000
  -8.1430000   3.4290000   5.5190000  -9.0030000   2.7730000   5.3840000
  -8.0740000   3.7760000   7.0230000  -7.3510000   4.5550000   7.2660000
  -9.1050000   4.0420000   7.2540000  -7.8310000   2.8990000   7.6230000
  -8.3690000   4.6160000   4.6620000  -9.1500000   5.2030000   5.1440000
  -8.6100000   4.3050000   3.6450000  -7.4570000   5.2030000   4.7660000
  -4.4420000   0.8430000   3.7900000  -4.9960000   0.2770000   4.4160000
  -3.0270000   0.5970000   3.4110000  -2.4140000   1.4130000   3.7940000
  -2.8580000   0.4840000   1.8350000  -1.8240000   0.9200000   1.2830000
  -2.6460000  -0.7400000   4.0640000  -2.9710000  -0.7600000   5.1050000
  -1.5760000  -0.9340000   3.9980000  -3.1850000  -1.5750000   3.6160000
  -3.8540000  -0.0530000   1.1080000  -4.6430000  -0.3750000   1.6500000
  -3.8380000   0.0260000  -0.3890000  -2.9340000  -0.4360000  -0.7870000
  -3.8300000   1.4690000  -0.8340000  -2.9240000   1.8010000  -1.6680000
  -5.0660000  -0.8010000  -0.8910000  -5.9260000  -0.5150000  -0.2840000
  -5.3440000  -0.5360000  -2.3740000  -4.3740000  -0.4650000  -2.8660000
  -5.9020000   0.3910000  -2.5120000  -5.9580000  -1.3370000  -2.7850000
  -4.8530000  -2.3200000  -0.7460000  -4.4060000  -2.4600000   0.2380000
  -4.1120000  -2.6470000  -1.4750000  -5.8140000  -2.7880000  -0.9590000
  -4.7250000   2.3150000  -0.3520000  -5.3560000   1.9120000   0.3260000
  -4.6450000   3.8060000  -0.6440000  -4.7430000   3.8970000  -1.7260000
  -3.2980000   4.5530000  -0.3820000  -2.9180000   5.4530000  -1.0850000
  -5.8450000   4.5100000   0.1000000  -5.5230000   4.3780000   1.1330000
  -5.8690000   6.0120000  -0.1630000  -6.5530000   6.5260000   0.5120000
  -5.9620000   6.1690000  -1.2370000  -4.9700000   6.5370000   0.1590000
  -7.2430000   3.9770000  -0.2240000  -7.8260000   4.3060000   0.6360000
  -7.5600000   4.3790000  -1.1860000  -7.2650000   2.8890000  -0.2690000
  -2.7080000   4.1930000   0.7450000  -3.2880000   3.5490000   1.2630000
  -1.3860000   4.6450000   1.1960000  -1.2930000   5.7190000   1.0350000
  -0.2590000   4.0770000   0.3300000   0.5810000   4.8510000  -0.0790000
  -1.1480000   4.1800000   2.6160000  -1.4750000   3.1460000   2.7330000
  -0.0750000   4.2950000   2.7680000  -1.8900000   5.0850000   3.6390000
  -2.9130000   5.0740000   3.2640000  -1.8110000   4.3300000   4.9440000
  -2.2620000   4.9430000   5.7240000  -0.7630000   4.1130000   5.1500000
  -2.4050000   3.4170000   4.9940000  -1.4390000   6.5000000   3.9400000
  -0.5320000   6.4930000   4.5440000  -2.2070000   6.9990000   4.5300000
  -1.2830000   7.2360000   3.1510000  -0.2500000   2.8090000  -0.0080000
  -1.0070000   2.2350000   0.3350000   0.6630000   2.1470000  -1.0130000
   1.6890000   2.3280000  -0.6930000   0.5330000   2.9280000  -2.3340000
   1.5700000   3.3390000  -2.8750000   0.5210000   0.6800000  -1.1940000
   1.3110000   0.2320000  -1.7970000  -0.4700000   0.6190000  -1.6430000
   0.5780000   0.1150000  -0.2630000  -0.6970000   3.2350000  -2.7210000
  -1.4050000   2.8110000  -2.1390000  -1.1120000   3.9610000  -3.9290000
  -0.5830000   3.5240000  -4.7760000  -0.7660000   5.5130000  -3.8400000
  -0.4800000   6.2180000  -4.8410000  -2.6610000   3.8300000  -4.1840000
  -2.9990000   2.7950000  -4.1260000  -3.2480000   4.4510000  -3.5070000
  -2.8930000   4.2210000  -5.1750000  -0.7270000   6.1510000  -2.6790000
  -1.0270000   5.7010000  -1.8260000  -0.2540000   7.5130000  -2.5390000
  -0.7490000   8.2180000  -3.2080000   1.2590000   7.6650000  -2.7800000
   1.6610000   8.5180000  -3.5530000  -0.5960000   7.9720000  -1.1070000
  -1.6390000   8.2770000  -1.1880000  -0.4800000   7.2380000  -0.3090000
  -0.0470000   8.8320000  -0.7220000   2.0510000   6.6780000  -2.3300000
   1.7540000   5.9180000  -1.7350000   3.5160000   6.6810000  -2.4510000
   3.7870000   7.7240000  -2.2820000   3.9940000   6.4240000  -3.8920000
   4.8230000   7.1280000  -4.4440000   4.1160000   5.7090000  -1.4530000
   3.9010000   6.0540000  -0.4420000   5.1670000   5.4580000  -1.6000000
   3.6090000   4.7820000  -1.7190000   3.3650000   5.4100000  -4.4970000
   2.6490000   4.9730000  -3.9360000   3.4890000   5.0620000  -5.9030000
   4.5570000   4.9290000  -6.0740000   3.0960000   6.1210000  -6.9880000
   3.9880000   6.5620000  -7.7490000   2.7490000   3.7330000  -6.1500000
   1.6970000   3.7820000  -5.8690000   3.1810000   2.9790000  -5.4920000
   2.8710000   3.1050000  -7.5670000   2.4940000   3.8320000  -8.2860000
   4.2920000   2.7740000  -7.9310000   4.2600000   2.5380000  -8.9950000
   4.6290000   1.9450000  -7.3090000   4.8730000   3.6920000  -7.8470000
   1.9950000   1.8210000  -7.6740000   2.3990000   0.9620000  -7.1380000
   0.9480000   2.0620000  -7.4900000   1.9890000   1.4450000  -8.6970000
   1.9180000   6.6440000  -6.9870000   1.1870000   6.3360000  -6.3620000
   1.5480000   7.8280000  -7.8290000   1.5550000   7.4920000  -8.8660000
   2.4120000   9.1120000  -7.6670000   2.6370000   9.8450000  -8.6210000
   0.0680000   8.2150000  -7.5030000  -0.3380000   8.9320000  -8.2160000
   0.1140000   8.6850000  -6.5210000  -0.5820000   7.3400000  -7.5070000
   2.9570000   9.3480000  -6.5000000   2.9520000   8.5990000  -5.8240000
   3.8480000  10.5450000  -6.2630000   3.4250000  11.4590000  -6.6800000
   5.3150000  10.3380000  -6.7710000   6.1740000  11.2840000  -6.6850000
   3.7500000  10.8130000  -4.7240000   4.4040000  11.6610000  -4.5220000
   4.0940000   9.8760000  -4.2870000   2.7430000  11.0380000  -4.3740000
   5.6810000   9.0790000  -7.2900000   4.9310000   8.4060000  -7.3610000
   7.0500000   8.7200000  -7.7250000   7.5360000   9.6070000  -8.1300000
   7.0300000   7.9580000  -8.5040000   8.0770000   8.2510000  -6.6650000
   9.2610000   8.1090000  -6.9810000   7.6520000   8.0410000  -5.4040000
   6.6730000   8.2560000  -5.2830000   8.5400000   7.7800000  -4.2400000
   9.4910000   8.3080000  -4.3160000   8.9160000   6.2940000  -4.3530000
  10.0470000   5.9150000  -4.0550000   7.8450000   8.0950000  -2.8450000
   8.6640000   8.2210000  -2.1380000   7.0990000   7.3340000  -2.6150000
   7.1850000   9.5050000  -2.9080000   6.3830000   9.3930000  -3.6360000
   6.5630000   9.8290000  -1.5650000   7.4120000   9.7860000  -0.8830000
   6.2800000  10.8770000  -1.4650000   5.8270000   9.1210000  -1.1850000
   8.2130000  10.6070000  -3.3650000   9.0470000  10.6150000  -2.6640000
   8.6020000  10.4390000  -4.3690000   7.6940000  11.5650000  -3.3350000
   8.0670000   5.3850000  -4.8330000   7.1100000   5.7000000  -4.9080000
   8.2500000   3.9020000  -4.7520000   9.3210000   3.7180000  -4.6620000
   7.9560000   3.1240000  -6.0120000   7.3040000   3.6670000  -6.8620000
   7.5880000   3.2600000  -3.5560000   7.9010000   2.2170000  -3.6100000
   6.0240000   3.3290000  -3.6680000   5.7480000   2.9770000  -4.6620000
   5.5840000   4.3200000  -3.5550000   8.2800000   3.8110000  -2.3010000
   9.3220000   3.5760000  -2.5190000   7.9580000   3.2830000  -1.4040000
   8.1700000   4.8940000  -2.2520000   5.4070000   2.2050000  -2.8030000
   5.4340000   2.6040000  -1.7890000   6.0540000   1.3270000  -2.8120000
   4.4130000   2.0190000  -3.2090000   8.4950000   1.9070000  -6.1160000
   8.8000000   1.4270000  -5.2820000   8.1250000   0.9950000  -7.2730000
   8.0530000   1.7400000  -8.0660000   6.7400000   0.2860000  -7.0540000
   6.2360000   0.2440000  -5.9580000   9.1460000   0.0390000  -7.7370000
   8.8690000  -0.5080000  -8.6380000   9.4590000  -0.8640000  -6.7010000
   9.7870000  -0.3100000  -5.9880000  10.4350000   0.8900000  -8.0190000
  10.2690000   1.4420000  -8.9440000  10.8020000   1.5110000  -7.2020000
  11.3170000   0.3110000  -8.2940000   6.1360000  -0.2950000  -8.0950000
   6.4220000  -0.0870000  -9.0410000   4.9400000  -1.1500000  -7.9840000
   4.1520000  -0.6570000  -7.4140000   5.2640000  -2.4600000  -7.3690000
   4.4860000  -2.9410000  -6.5240000   4.4430000  -1.3570000  -9.3900000
   4.1600000  -0.3930000  -9.8130000   3.5620000  -1.9990000  -9.3600000
   5.2910000  -1.7460000  -9.9530000   6.3930000  -3.0610000  -7.6080000
   6.8570000  -2.7690000  -8.4560000   6.8910000  -4.1990000  -6.7320000
   6.0790000  -4.9270000  -6.7510000   7.1390000  -3.9030000  -5.2800000
   7.0180000  -4.8440000  -4.4710000   8.0980000  -4.7710000  -7.4330000
   8.5120000  -5.6080000  -6.8700000   8.8700000  -4.0080000  -7.5370000
   7.7450000  -5.3990000  -8.7850000   8.7050000  -5.7320000  -9.1780000
   7.4540000  -4.7070000  -9.5760000   6.6900000  -6.4980000  -8.8560000
   6.6640000  -7.4450000  -8.0560000   5.8270000  -6.3560000  -9.7290000
   7.2890000  -2.6590000  -4.8370000   7.2480000  -1.8760000  -5.4730000
   7.3310000  -2.3230000  -3.4510000   7.8040000  -3.0600000  -2.8030000
   5.9370000  -1.9140000  -2.8960000   5.6050000  -2.2260000  -1.7850000
   8.2900000  -1.1020000  -3.2840000   7.9280000  -0.2710000  -3.8900000
   8.4050000  -0.7580000  -2.2560000   9.7660000  -1.4880000  -3.5590000
  10.0330000  -2.1480000  -2.7350000   9.9070000  -2.0730000  -4.4680000
  10.6500000  -0.2690000  -3.5350000  10.5310000   0.5700000  -4.4980000
  11.5450000  -0.2820000  -2.6530000   5.0820000  -1.3110000  -3.7490000
   5.3920000  -0.8290000  -4.5800000   3.6970000  -1.1560000  -3.4300000
   3.7590000  -0.6030000  -2.4930000   2.9270000  -2.4790000  -3.1350000
   2.3330000  -2.5540000  -2.0810000   3.0600000  -0.2750000  -4.5000000
   2.1340000   0.0470000  -4.0230000   3.7060000   0.5750000  -4.7210000
   2.7780000  -0.8940000  -5.3510000   3.0570000  -3.5070000  -3.9590000
   3.6810000  -3.4150000  -4.7470000   2.6460000  -4.8690000  -3.6890000
   1.5610000  -4.9650000  -3.6370000   3.2750000  -5.4490000  -2.3830000
   2.5860000  -6.2870000  -1.7910000   3.1560000  -5.8330000  -4.8350000
   4.2400000  -5.7920000  -4.9430000   2.8640000  -6.8510000  -4.5780000
   2.4710000  -5.5730000  -6.1440000   2.5210000  -4.4990000  -6.3240000
   3.1850000  -6.2340000  -7.3320000   2.5600000  -6.2960000  -8.2230000
   4.1570000  -5.8220000  -7.6030000   3.4820000  -7.2310000  -7.0070000
   1.0070000  -6.0350000  -6.2560000   0.4660000  -5.6320000  -7.1120000
   1.0630000  -7.1230000  -6.2860000   0.5140000  -5.6700000  -5.3540000
   4.4840000  -5.0520000  -1.9840000   4.9110000  -4.3860000  -2.6110000
   5.2790000  -5.7460000  -0.9880000   5.1040000  -6.8190000  -1.0550000
   4.7570000  -5.2640000   0.3770000   4.9320000  -5.9870000   1.3580000
   6.7670000  -5.5050000  -1.1210000   6.8590000  -4.4230000  -1.0210000
   7.1630000  -6.0400000  -1.9840000   7.3120000  -5.9220000  -0.2750000
   4.0720000  -4.0850000   0.4350000   4.0590000  -3.5310000  -0.4100000
   3.2750000  -3.5220000   1.5520000   3.7270000  -3.8300000   2.4950000
   1.8110000  -4.0410000   1.5140000   1.2270000  -4.2120000   2.5990000
   3.3380000  -2.0220000   1.5090000   4.3520000  -1.6270000   1.5730000
   2.6450000  -1.6370000   2.2560000   2.9150000  -1.7450000   0.5430000
   1.2380000  -4.3170000   0.3210000   1.8520000  -4.4710000  -0.4660000
  -0.0330000  -5.0770000   0.2780000  -0.7940000  -4.5980000   0.8940000
   0.2370000  -6.4940000   0.8510000  -0.6120000  -7.0560000   1.5390000
  -0.6390000  -5.0600000  -1.1230000   0.1470000  -5.3660000  -1.8140000
  -1.1310000  -3.5960000  -1.4810000  -2.0440000  -3.4350000  -0.9080000
  -0.3970000  -2.8730000  -1.1250000  -1.8050000  -6.0560000  -1.2220000
  -2.5410000  -5.8070000  -0.4570000  -1.3730000  -7.0400000  -1.0360000
  -2.2370000  -6.1520000  -2.2180000  -1.4590000  -3.3360000  -2.9920000
  -0.5280000  -3.5680000  -3.5110000  -2.1970000  -4.0300000  -3.3950000
  -1.7110000  -2.2780000  -3.0730000   1.3600000  -7.1060000   0.5680000
   2.1230000  -6.6170000   0.1220000   1.7370000  -8.4350000   1.0300000
   0.8090000  -8.9700000   1.2270000   2.5880000  -8.5200000   2.2670000
   3.1900000  -9.5820000   2.5270000   2.3070000  -9.1720000  -0.1660000
   3.2110000  -8.6500000  -0.4790000   1.5130000  -9.2540000  -0.9080000
   2.6310000 -10.1600000   0.1600000   2.4990000  -7.4450000   3.0730000
   1.9890000  -6.6530000   2.7080000   2.9850000  -7.2630000   4.4430000
   4.0600000  -7.1520000   4.3050000   2.7360000  -8.4380000   5.3940000
   3.6140000  -8.9800000   6.0420000   2.3920000  -5.9730000   5.0720000
   2.5920000  -5.1690000   4.3640000   2.8760000  -5.7530000   6.0230000
   1.3140000  -6.0780000   5.1940000   1.5480000  -8.7830000   5.4760000
  -4.7560000  -6.2920000   1.5530000  -4.2520000  -4.9850000   2.1000000
  -3.3490000  -5.1430000   3.3210000  -4.1000000  -4.9580000   4.6150000
  -3.3130000  -3.9500000   5.5750000  -4.1400000  -3.4130000   6.7790000
  -3.8510000  -1.9000000   7.0490000  -2.3050000  -4.6430000   6.2290000
  -0.9550000  -4.0740000   6.2780000  -0.1390000  -4.4410000   7.1770000
  -0.5830000  -3.1940000   5.1590000  -0.2950000  -1.8190000   5.4500000
  -0.0080000  -0.8300000   4.3320000   0.0250000   0.5330000   4.5360000
   0.3040000   1.4440000   3.4590000   0.5760000   0.9920000   2.1550000
   0.9070000   1.8130000   1.0960000   2.3080000   2.0020000   0.7740000
   0.5530000  -0.3900000   1.9810000   0.2860000  -1.2730000   3.0350000
  -5.0146109  -6.9626436   2.3856810  -5.6490236  -6.1115487   0.9366023
  -3.9730267  -6.7578398   0.9366023  -3.6827727  -4.4733382   1.3099478
  -5.1318007  -4.4079953   2.4209615  -2.9094964  -6.1512991   3.3079772
  -2.5723009  -4.3658507   3.2682992  -5.0982533  -4.5491237   4.3998013
  -4.1917521  -5.9321750   5.1175582  -3.0044329  -3.1341534   4.9047906
  -5.2107624  -3.5380983   6.5603262  -3.8519229  -3.9827471   7.6747678
  -3.8168345  -1.7211334   8.1338223  -2.8842462  -1.6258223   6.6015475
  -4.6486374  -1.2888038   6.6015475  -0.5273722  -3.5788794   4.1300329
  -0.2817133  -1.4762184   6.4951432  -0.1659946   0.9318113   5.5432093
   0.3047490   2.5253651   3.6606158   2.8905511   2.0805883   1.7037624
   2.6682508   1.1443183   0.1869723   2.4281001   2.9244828   0.1869723
   0.7515038  -0.8022820   0.9806901   0.3078521  -2.3549023   2.8374906
