
  474  0.0000000e+00
   1.2700000 -10.2640000   0.5890000   2.1820000 -10.5610000   0.2720000
   1.0320000  -9.5590000  -0.0930000   0.5560000 -10.9730000   0.4990000
   1.3640000  -9.5550000   1.9020000   1.7420000 -10.3100000   2.5920000
   0.0460000  -9.1400000   2.3480000  -0.8980000  -8.8500000   1.5810000
   2.3050000  -8.3720000   1.7320000   2.8710000  -8.4790000   0.8060000
   3.0640000  -8.5000000   2.5040000   1.7140000  -6.9790000   1.8810000
   1.3970000  -6.1740000   0.7530000   1.6300000  -6.4590000  -0.2630000
   1.4240000  -6.4520000   3.1700000   1.5500000  -7.1440000   3.9890000
   0.8810000  -4.8970000   0.9030000   0.6230000  -4.2500000   0.0780000
   0.9340000  -5.1300000   3.2770000   0.8310000  -4.6840000   4.2550000
   0.6780000  -4.3410000   2.1830000   0.3610000  -3.1020000   2.4000000
   0.3740000  -2.7960000   3.3100000  -0.1980000  -9.1050000   3.6830000
   0.6040000  -9.3230000   4.2560000  -1.4850000  -9.0040000   4.4060000
  -2.2200000  -8.6110000   3.7020000  -1.3030000  -8.1350000   5.6000000
  -0.5170000  -8.3440000   6.5510000  -1.8710000 -10.4240000   4.8630000
  -1.0850000 -10.7500000   5.5440000  -1.8680000 -11.2620000   3.7180000
  -0.9460000 -11.3340000   3.4600000  -3.2960000 -10.4920000   5.4150000
  -3.3840000 -11.5140000   5.7830000  -3.3190000  -9.7870000   6.2450000
  -4.1400000 -10.3020000   4.7520000  -2.0650000  -7.0460000   5.6370000
  -2.7350000  -6.9270000   4.8910000  -2.1540000  -6.0590000   6.6870000
  -1.7690000  -6.5500000   7.5800000  -3.6290000  -5.5900000   6.9710000
  -4.4330000  -5.3960000   6.0510000  -1.1860000  -4.8770000   6.3260000
  -0.1860000  -5.2320000   6.0730000  -1.7270000  -4.3700000   5.5270000
  -0.9450000  -3.9860000   7.5910000  -1.4590000  -4.2740000   8.7310000
  -0.2550000  -2.9250000   7.3590000  -3.9880000  -5.3480000   8.2690000
  -3.2220000  -5.4120000   8.9240000  -5.2240000  -4.8190000   8.7930000
  -5.3380000  -3.7810000   8.4810000  -5.0250000  -4.6990000   9.8580000
  -6.4490000  -5.6990000   8.5620000  -7.6050000  -5.2130000   8.6820000
  -6.2750000  -6.9470000   8.0340000  -5.3320000  -7.3080000   8.0560000
  -7.2990000  -7.7390000   7.3860000  -6.9830000  -8.7810000   7.4320000
  -8.2330000  -7.5490000   7.9160000  -7.5010000  -7.6070000   5.8680000
  -8.2470000  -8.4660000   5.3250000  -6.6920000  -6.7960000   5.1540000
  -5.9730000  -6.3860000   5.7330000  -6.5350000  -6.6750000   3.7140000
  -7.4880000  -7.0400000   3.3310000  -5.3750000  -7.5320000   3.1880000
  -4.3500000  -7.5780000   3.9300000  -6.4420000  -5.2310000   3.3960000
  -6.5940000  -5.2010000   2.3170000  -5.3980000  -4.9700000   3.5690000
  -7.3280000  -4.1580000   4.1950000  -8.3720000  -4.4700000   4.2130000
  -6.9470000  -3.9770000   5.2000000  -7.3180000  -2.8680000   3.4280000
  -6.2720000  -2.5650000   3.4150000  -7.6560000  -2.9420000   2.3940000
  -8.1110000  -1.8740000   4.1530000  -8.6490000  -2.1960000   4.9450000
  -8.2300000  -0.5830000   3.7330000  -7.6760000  -0.1050000   2.7270000
  -7.7820000   0.8820000   2.5430000  -7.0930000  -0.6820000   2.1370000
  -9.0510000   0.1670000   4.4450000  -9.1080000   1.1670000   4.3170000
  -9.5980000  -0.3600000   5.1100000  -5.4580000  -8.1110000   1.9260000
  -6.2980000  -7.9420000   1.3900000  -4.3830000  -8.8690000   1.2610000
  -3.4840000  -8.6010000   1.8140000  -4.0880000  -8.4250000  -0.2590000
  -4.9020000  -7.9260000  -0.9960000  -4.6850000 -10.3420000   1.4410000
  -5.1040000 -10.5060000   2.4340000  -5.3260000 -10.7520000   0.6610000
  -3.4160000 -10.9730000   1.2740000  -2.8850000 -10.9290000   2.0730000
  -2.8330000  -8.6670000  -0.6520000  -2.2500000  -9.2090000  -0.0300000
  -2.1040000  -7.8800000  -1.7160000  -2.7660000  -7.6860000  -2.5590000
  -0.8780000  -8.5930000  -2.2130000  -0.5800000  -9.6220000  -1.6610000
  -1.6500000  -6.5560000  -0.9860000  -1.0210000  -5.9390000  -1.6280000
  -1.1190000  -6.8860000  -0.0930000  -2.8140000  -5.7320000  -0.5720000
  -3.7070000  -5.1870000  -1.5080000  -3.6460000  -5.4300000  -2.5590000
  -2.9040000  -5.2730000   0.7720000  -2.1720000  -5.7140000   1.4320000
  -4.6780000  -4.2200000  -1.1400000  -5.3530000  -3.7860000  -1.8630000
  -3.9170000  -4.4280000   1.2220000  -3.9940000  -4.0390000   2.2270000
  -4.7820000  -3.8680000   0.2690000  -5.4430000  -3.0850000   0.6100000
  -0.1380000  -7.9780000  -3.2060000  -0.5670000  -7.1150000  -3.5080000
   1.1060000  -8.3460000  -3.8850000   1.1440000  -9.4040000  -4.1440000
   2.2310000  -8.1850000  -2.8090000   2.3150000  -8.9890000  -1.8730000
   1.1940000  -7.4290000  -5.1110000   0.3320000  -7.5950000  -5.7580000
   2.1250000  -7.6590000  -5.6280000   1.1000000  -6.3740000  -4.8510000
   3.1130000  -7.1670000  -2.9070000   3.0710000  -6.5000000  -3.6640000
   4.3120000  -7.1200000  -1.9620000   4.3260000  -7.9070000  -1.2080000
   4.4000000  -5.8110000  -1.2780000   3.9990000  -4.7480000  -1.8350000
   5.6020000  -7.3380000  -2.7730000   5.7420000  -6.6490000  -3.6060000
   6.8170000  -7.2970000  -1.8570000   6.8570000  -8.1510000  -1.1800000
   7.7230000  -7.3860000  -2.4570000   6.9570000  -6.4110000  -1.2370000
   5.5480000  -8.7940000  -3.3070000   6.5220000  -9.1150000  -3.6760000
   5.1750000  -9.4730000  -2.5410000   4.8550000  -8.7850000  -4.1490000
   4.6480000  -5.8530000   0.0570000   4.6470000  -6.7920000   0.4300000
   4.6470000  -4.6310000   0.8950000   3.6950000  -4.1410000   0.6890000
   5.8590000  -3.6800000   0.6630000   5.6140000  -2.4860000   0.7170000
   4.6720000  -5.0600000   2.3850000   5.6840000  -5.3940000   2.6180000
   3.9620000  -5.8540000   2.6200000   4.3980000  -3.9110000   3.3290000
   5.2020000  -3.1760000   3.2970000   3.4810000  -3.4210000   3.0010000
   4.2380000  -4.5280000   4.7700000   3.5050000  -5.3340000   4.7340000
   5.1250000  -4.9080000   5.2770000   3.5470000  -3.5400000   5.7230000
   2.5810000  -3.2480000   5.3120000   3.4270000  -4.0330000   6.6870000
   4.4280000  -2.3760000   5.9500000   5.1040000  -2.4890000   6.6920000
   3.9000000  -1.5320000   6.1170000   5.0330000  -2.0110000   5.2280000
   7.0560000  -4.1620000   0.3290000   7.1190000  -5.1590000   0.4760000
   8.2930000  -3.4260000   0.1260000   8.7380000  -3.4080000   1.1210000
   7.9930000  -2.0490000  -0.5700000   8.2960000  -1.0200000   0.0440000
   9.2230000  -4.2280000  -0.8270000  10.0960000  -3.6040000  -1.0150000
   9.4870000  -5.1690000  -0.3440000   8.7270000  -4.4710000  -1.7660000
   7.3950000  -2.2230000  -1.7210000   7.1950000  -3.1760000  -1.9910000
   7.0090000  -1.2280000  -2.6940000   7.7670000  -0.4580000  -2.8400000
   5.7570000  -0.4090000  -2.3150000   5.7640000   0.7850000  -2.5860000
   6.7810000  -2.0720000  -3.9550000   7.7490000  -2.2920000  -4.4060000
   6.1040000  -1.4770000  -4.5680000   6.2400000  -3.0040000  -3.7940000
   4.7090000  -0.9400000  -1.6170000   4.7850000  -1.9140000  -1.3640000
   3.5860000  -0.1470000  -1.0290000   3.1160000   0.5170000  -1.7550000
   4.0600000   0.7440000   0.0550000   3.6240000   1.8830000   0.1350000
   2.4100000  -1.0110000  -0.6040000   2.8050000  -1.8860000  -0.0880000
   1.3650000  -0.3280000   0.2550000   1.8450000   0.0920000   1.1390000
   1.0490000   0.5560000  -0.3000000   0.4870000  -0.9320000   0.4830000
   1.7390000  -1.5550000  -1.8560000   0.7830000  -2.0510000  -1.6910000
   1.6220000  -0.6900000  -2.5090000   2.3710000  -2.3190000  -2.3090000
   5.0650000   0.3650000   0.8840000   5.3960000  -0.5750000   0.7200000
   5.6330000   1.1470000   1.9410000   4.7790000   1.4710000   2.5360000
   6.3250000   2.3980000   1.3320000   6.0790000   3.5630000   1.6330000
   6.6030000   0.3220000   2.7600000   7.2230000   1.0200000   3.3230000
   7.3030000  -0.2410000   2.1420000   5.9640000  -0.5730000   3.7810000
   4.6910000  -0.4660000   3.9950000   6.5990000  -1.4210000   4.4030000
   7.3040000   2.1400000   0.4640000   7.5380000   1.1650000   0.3390000
   8.1080000   3.0970000  -0.2540000   8.5060000   3.6830000   0.5740000
   7.2470000   4.0520000  -1.1060000   7.6600000   5.2030000  -1.3570000
   9.2420000   2.3570000  -1.0140000   9.8500000   1.7310000  -0.3600000
   8.7740000   1.7080000  -1.7540000  10.1740000   3.3040000  -1.7990000
   9.6390000   4.0910000  -2.3310000  10.8490000   3.8410000  -1.1340000
  10.9050000   2.4900000  -2.9540000  10.2720000   2.2540000  -4.0350000
  12.0680000   2.0290000  -2.7490000   6.0300000   3.6970000  -1.5870000
   5.6450000   2.8550000  -1.1830000   5.0860000   4.5290000  -2.2780000
   5.6750000   5.0020000  -3.0640000   4.4020000   5.6430000  -1.4320000
   4.4930000   6.8870000  -1.6670000   4.1300000   3.5690000  -2.9640000
   3.6040000   4.2840000  -3.5970000   3.4400000   3.1120000  -2.2550000
   4.5900000   2.7730000  -3.5500000   3.7500000   5.2430000  -0.3520000
   3.6600000   4.2380000  -0.3010000   3.2670000   6.0990000   0.7690000
   2.5030000   6.7590000   0.3580000   4.4470000   7.0250000   1.2740000
   4.2010000   8.2550000   1.2590000   2.6840000   5.2470000   1.8070000
   3.4800000   4.5870000   2.1510000   1.5180000   4.3460000   1.4110000
   0.6070000   4.8990000   1.1810000   1.6090000   3.8010000   0.4710000
   2.3600000   6.2150000   3.0180000   1.8730000   5.8000000   3.9010000
   3.3010000   6.6460000   3.3600000   1.7330000   7.0150000   2.6230000
   1.0490000   3.3300000   2.4150000   0.0380000   2.9960000   2.1840000
   0.9780000   3.7640000   3.4120000   1.7560000   2.5050000   2.3280000
   5.6180000   6.4690000   1.5890000   5.7450000   5.4670000   1.5750000
   6.7550000   7.2350000   2.0970000   6.3900000   7.6900000   3.0180000
   7.3740000   8.3000000   1.2030000   7.7860000   9.3810000   1.6760000
   7.7260000   6.1970000   2.5810000   8.0610000   5.4220000   1.8910000
   8.5670000   6.5940000   3.1500000   7.2520000   5.5530000   3.3210000
   7.5070000   7.9860000  -0.1040000   7.2010000   7.1050000  -0.4920000
   8.0400000   8.9000000  -1.1970000   8.9870000   9.3620000  -0.9180000
   7.0810000   9.9850000  -1.6440000   7.3770000  10.7830000  -2.5460000
   8.4480000   7.9620000  -2.3600000   7.5650000   7.5820000  -2.8740000
   9.1010000   8.6080000  -2.9470000   9.0550000   7.0860000  -2.1290000
   5.8540000   9.8560000  -1.2000000   5.6200000   9.1370000  -0.5300000
   4.8710000  10.8740000  -1.3960000   5.2510000  11.8960000  -1.4000000
   4.1270000  10.7070000  -0.6180000   4.2320000  10.7780000  -2.7710000
   3.9320000  11.7660000  -3.4260000   4.1700000   9.5560000  -3.3090000
   4.5180000   8.7340000  -2.8360000   3.4000000   9.2730000  -4.5440000
   3.3840000  10.1270000  -5.2220000   1.9330000   8.8000000  -4.4210000
   1.1950000   8.5750000  -5.4330000   4.1200000   8.0840000  -5.3300000
   4.0410000   7.1830000  -4.7200000   3.6490000   7.9530000  -6.3040000
   5.6660000   8.2460000  -5.5460000   6.1990000   8.3100000  -4.5980000
   6.0900000   6.9860000  -6.2580000   5.2830000   6.6370000  -6.9020000
   6.1640000   6.2050000  -5.5010000   7.0490000   7.0540000  -6.7710000
   5.9750000   9.3470000  -6.4750000   5.3550000   9.2980000  -7.3700000
   5.8040000  10.2980000  -5.9710000   7.0360000   9.2300000  -6.6940000
   1.4730000   8.6280000  -3.1600000   2.1110000   8.7830000  -2.3920000
   0.1040000   8.3000000  -2.6320000  -0.6450000   8.8750000  -3.1770000
   0.0320000   8.7900000  -1.1990000   1.0410000   9.2930000  -0.7690000
  -0.2790000   6.7470000  -2.7060000  -1.1730000   6.5540000  -2.1120000
  -0.6140000   6.3460000  -4.1740000  -1.0910000   5.3670000  -4.1350000
   0.2830000   6.1250000  -4.7530000  -1.3400000   7.0170000  -4.6310000
   0.8400000   5.8430000  -2.1290000   0.4950000   4.8090000  -2.0890000
   1.7690000   5.8580000  -2.6990000   0.9090000   6.0100000  -1.0540000
  -1.0830000   8.6680000  -0.5130000  -1.9030000   8.3620000  -1.0160000
  -1.0480000   8.9260000   0.9560000  -0.0290000   9.1570000   1.2640000
  -1.5950000   7.7750000   1.7910000  -1.4130000   7.7970000   2.9640000
  -1.8410000  10.1570000   1.3130000  -1.7220000  10.3040000   2.3860000
  -3.2230000  10.1260000   0.9560000  -3.3380000   9.2940000   0.4920000
  -1.3630000  11.4190000   0.5850000  -0.3020000  11.4850000   0.8270000
  -1.4870000  11.3860000  -0.4970000  -1.8780000  12.3000000   0.9680000
  -2.1070000   6.7250000   1.1510000  -2.3130000   6.7980000   0.1640000
  -2.7200000   5.5280000   1.6760000  -2.0210000   5.1440000   2.4190000
  -2.9500000   4.4240000   0.5750000  -2.9690000   4.6830000  -0.6070000
  -3.9650000   5.7710000   2.4830000  -3.9840000   5.0300000   3.2820000
  -3.8620000   6.7240000   3.0020000  -5.1420000   5.8020000   1.5620000
  -5.4890000   6.6950000   1.6160000  -3.2880000   3.2150000   0.9800000
  -3.3700000   3.1060000   1.9810000  -3.6130000   2.0610000   0.0970000
  -2.8720000   1.9950000  -0.7000000  -4.9240000   2.3690000  -0.6510000
  -5.1960000   1.9050000  -1.8010000  -3.8080000   0.7790000   0.8860000
  -4.6330000   0.1710000   0.5130000  -3.9510000   0.8950000   1.9600000
  -2.5380000  -0.0770000   0.8560000  -1.6270000   0.4160000   1.1960000
  -2.6610000  -1.3810000   1.5930000  -2.0680000  -2.2000000   1.1870000
  -2.3340000  -1.3300000   2.6310000  -3.6590000  -1.8120000   1.5200000
  -2.2560000  -0.6380000  -0.5060000  -3.1420000  -1.0390000  -0.9980000
  -1.5190000  -1.4400000  -0.5540000  -1.9260000   0.1170000  -1.2200000
  -5.8890000   3.1330000  -0.0920000  -5.7750000   3.5760000   0.8090000
  -7.0590000   3.6490000  -0.7340000  -7.5660000   2.7830000  -1.1590000
  -6.8060000   4.5250000  -1.9490000  -7.7250000   4.7650000  -2.7320000
  -7.9910000   4.3410000   0.2610000  -8.8100000   4.8810000  -0.2140000
  -7.4870000   5.1250000   0.8260000  -8.6530000   3.4150000   1.2810000
  -7.9750000   2.5010000   1.8950000  -9.9190000   3.4840000   1.4120000
  -5.5170000   5.0670000  -2.0780000  -4.8600000   4.8240000  -1.3500000
  -5.0780000   5.9270000  -3.2140000  -5.9050000   6.4600000  -3.6840000
  -4.4330000   5.1030000  -4.2910000  -4.4960000   5.4020000  -5.4590000
  -4.1200000   7.0230000  -2.7110000  -3.8990000   7.6400000  -3.5820000
  -3.1520000   6.6270000  -2.4020000  -4.6690000   8.0330000  -1.6930000
  -5.7400000   8.6470000  -2.0370000  -4.2350000   8.0650000  -0.5310000
  -3.7500000   4.0490000  -3.8640000  -3.8000000   3.8500000  -2.8750000
  -2.9880000   3.1760000  -4.7570000  -2.1500000   3.7920000  -5.0830000
  -3.7130000   2.5520000  -5.9470000  -4.8080000   1.9900000  -5.7940000
  -2.3580000   2.0670000  -3.9470000  -1.9370000   2.4720000  -3.0270000
  -3.1550000   1.4200000  -3.5800000  -1.1880000   1.3360000  -4.6350000
   0.1390000   1.6790000  -4.2000000   0.1750000   2.3350000  -3.3430000
  -1.2890000   0.3530000  -5.5760000  -2.2440000  -0.0460000  -5.8860000
   1.2860000   1.2570000  -4.8670000   2.2500000   1.6420000  -4.5700000
  -0.1480000  -0.2630000  -6.1400000  -0.1740000  -1.0580000  -6.8700000
   1.1320000   0.2070000  -5.7750000   1.9760000  -0.3670000  -6.1290000
  -3.1180000   2.7350000  -7.1620000  -2.2460000   3.2450000  -7.1380000
  -3.6440000   2.2890000  -8.4180000  -4.7080000   2.0910000  -8.2870000
  -3.0750000   0.8960000  -8.8380000  -1.9100000   0.7500000  -9.1280000
  -3.4490000   3.3640000  -9.5320000  -2.5370000   3.9190000  -9.3100000
  -3.3600000   2.7950000 -10.4570000  -4.6100000   4.3590000  -9.6930000
  -5.6200000   4.2330000  -8.9640000  -4.4770000   5.3090000 -10.5310000
  -3.9810000  -0.0520000  -8.7860000  -4.9000000   0.1980000  -8.4480000
  -3.7180000  -1.4480000  -9.1150000  -2.6440000  -1.5690000  -8.9720000
  -4.1420000  -1.7900000 -10.5850000  -5.3430000  -1.6790000 -10.8150000
  -4.3790000  -2.4130000  -8.0490000  -5.4650000  -2.3630000  -8.1290000
  -4.1560000  -3.4570000  -8.2680000  -4.0310000  -2.1520000  -6.6440000
  -4.7740000  -1.3660000  -5.8450000  -5.6170000  -0.7810000  -6.1820000
  -2.8760000  -2.6090000  -5.8400000  -4.2490000  -1.4350000  -4.5290000
  -4.8130000  -1.0910000  -3.7650000  -3.1510000  -2.2760000  -4.4700000
  -1.7320000  -3.4070000  -6.0970000  -1.4590000  -3.6900000  -7.1020000
  -2.3620000  -2.7430000  -3.4450000  -2.6660000  -2.6020000  -2.4190000
  -0.8340000  -3.8120000  -5.0760000   0.0190000  -4.4400000  -5.2860000
  -1.1780000  -3.5310000  -3.7370000  -0.6240000  -3.9330000  -2.9010000
  -3.2570000  -2.2070000 -11.4360000  -9.8850000   7.6240000   4.2590000
  -9.4160000   6.7010000   5.2690000  -8.3870000   5.8540000   4.9760000
  -7.3440000   5.6080000   5.8650000  -6.3190000   4.7470000   5.5160000
  -6.3310000   4.1110000   4.2870000  -5.2360000   3.1690000   3.9000000
  -4.3550000   3.5460000   3.1570000  -5.1970000   1.7840000   4.4160000
  -4.0020000   1.2620000   4.9020000  -3.9700000  -0.0390000   5.3960000
  -5.1050000  -0.8380000   5.3800000  -6.2810000  -0.3240000   4.8560000
  -6.3300000   0.9860000   4.3780000  -7.3760000   4.3550000   3.3860000
  -7.3730000   3.7280000   2.1700000  -8.3970000   5.2340000   3.7460000
 -10.3319562   8.5036175   4.7453159  -9.0391588   7.9420323   3.6317775
 -10.6405707   7.1283138   3.6317775  -7.3350036   6.1002095   6.8486915
  -5.4913942   4.5672551   6.2179689  -3.0879727   1.8739769   4.8958085
  -3.0310255  -0.4400269   5.8052729  -5.0717750  -1.8633107   5.7770317
  -7.1821969  -0.9535260   4.8167422  -7.2697980   1.3864723   3.9700763
  -8.1065140   3.8933326   1.5260107  -9.2177016   5.4340350   3.0414187
