
  670  0.0000000e+00
  -9.4820000  -9.8340000   6.9510000  -8.7330000 -10.1360000   6.3440000
 -10.1260000 -10.5970000   7.1050000  -9.1350000  -9.4420000   7.8150000
 -10.0520000  -8.5540000   6.3920000 -10.3840000  -8.8630000   5.4010000
  -9.1020000  -7.3600000   6.2400000  -9.1830000  -6.6620000   5.2820000
 -11.1710000  -8.1010000   7.3570000 -11.6420000  -8.9830000   7.7910000
 -10.7180000  -7.5200000   8.1610000 -12.1360000  -7.0660000   6.7310000
 -12.5210000  -7.1810000   5.3680000 -12.3350000  -8.1250000   4.8770000
 -12.6290000  -5.9430000   7.4240000 -12.2850000  -5.7960000   8.4370000
 -13.2310000  -6.2550000   4.7060000 -13.4960000  -6.3380000   3.6630000
 -13.3570000  -4.9570000   6.7260000 -13.7030000  -4.0970000   7.2800000
 -13.7190000  -5.1060000   5.4040000 -14.5060000  -4.2360000   4.6630000
 -14.5960000  -4.4550000   3.7330000  -8.1770000  -7.0990000   7.1160000
  -8.0280000  -7.7790000   7.8470000  -7.2100000  -5.9760000   7.0720000
  -7.7310000  -5.0250000   6.9640000  -6.2600000  -6.1010000   5.8660000
  -6.0830000  -5.1860000   5.1620000  -6.4830000  -5.9940000   8.3740000
  -6.3390000  -7.0290000   8.6820000  -7.4000000  -5.3170000   9.5000000
  -8.4220000  -5.6970000   9.4920000  -6.9250000  -5.6630000  10.4180000
  -5.1310000  -5.2590000   8.5150000  -5.1690000  -4.2410000   8.1250000
  -4.3280000  -5.7290000   7.9470000  -4.9070000  -5.0780000   9.5670000
  -7.3560000  -3.7320000   9.5580000  -7.1540000  -3.4120000   8.5360000
  -6.5690000  -3.3170000  10.1890000  -8.2260000  -3.1560000   9.8740000
  -5.8070000  -7.3300000   5.6250000  -5.7820000  -8.0750000   6.3080000
  -4.7960000  -7.5280000   4.5040000  -3.9960000  -6.7890000   4.5450000
  -5.5030000  -7.2120000   3.1200000  -4.9290000  -6.5510000   2.2530000
  -4.3090000  -8.9660000   4.6340000  -5.1760000  -9.6070000   4.7950000
  -3.7960000  -9.2290000   3.7100000  -3.3810000  -9.2120000   5.8600000
  -3.6770000  -9.1900000   7.0450000  -2.0970000  -9.4360000   5.5910000
  -1.4330000  -9.7160000   6.2990000  -1.7320000  -9.4570000   4.6500000
  -6.7330000  -7.7680000   2.9420000  -7.1300000  -8.3650000   3.6530000
  -7.5210000  -7.5570000   1.6970000  -7.0520000  -8.0050000   0.8210000
  -7.8150000  -6.1140000   1.3680000  -7.4870000  -5.7190000   0.2170000
  -8.9610000  -8.2160000   1.9200000  -9.4120000  -8.3270000   0.9340000
  -9.5600000  -7.5260000   2.5140000  -8.9320000  -9.6030000   2.5640000
  -8.8590000  -9.7300000   3.8190000  -9.4190000 -10.5390000   1.8230000
  -8.0350000  -5.2940000   2.3670000  -8.0000000  -5.8020000   3.2400000
  -8.1050000  -3.7970000   2.4230000  -8.9090000  -3.6210000   1.7080000
  -6.7500000  -3.1470000   1.9090000  -6.6190000  -2.1970000   1.0600000
  -8.5500000  -3.2600000   3.8150000  -7.7360000  -3.3860000   4.5290000
  -8.7860000  -2.2090000   3.6500000  -9.7460000  -3.8180000   4.3030000
  -9.7060000  -4.7710000   4.4110000  -5.6080000  -3.5740000   2.5010000
  -5.7160000  -4.2620000   3.2320000  -4.3500000  -2.9020000   2.3570000
  -4.5540000  -1.8530000   2.1410000  -3.6540000  -3.3050000   0.9840000
  -2.9600000  -2.5270000   0.2750000  -3.4220000  -3.1660000   3.6000000
  -3.7480000  -2.5100000   4.4080000  -3.4540000  -4.1890000   3.9760000
  -1.9500000  -2.7310000   3.4060000  -1.5010000  -1.4830000   4.0030000
  -2.1020000  -0.8810000   4.6670000  -1.0590000  -3.5540000   2.7370000
  -1.3920000  -4.5040000   2.3460000  -0.1520000  -1.1160000   3.9360000
   0.1560000  -0.1700000   4.3560000   0.3140000  -3.2490000   2.6660000
   1.0110000  -3.7910000   2.0430000   0.7390000  -1.9420000   3.1750000
   1.7920000  -1.7050000   3.1580000  -3.9360000  -4.5750000   0.5610000
  -4.5670000  -5.1230000   1.1290000  -3.6430000  -5.1380000  -0.8230000
  -2.6210000  -4.9510000  -1.1510000  -4.4690000  -4.3150000  -1.7800000
  -3.8350000  -3.7140000  -2.7100000  -4.0250000  -6.6320000  -0.9050000
  -4.9280000  -6.7690000  -0.3100000  -3.1200000  -7.6470000  -0.1690000
  -2.0880000  -7.4290000  -0.4440000  -3.0060000  -7.4250000   0.8920000
  -4.1390000  -7.1890000  -2.3240000  -4.6750000  -6.6360000  -3.0950000
  -4.7740000  -8.0720000  -2.2680000  -3.1590000  -7.4150000  -2.7440000
  -3.2170000  -9.1610000  -0.3910000  -2.9050000  -9.4740000  -1.3870000
  -4.2520000  -9.4100000  -0.1530000  -2.5620000  -9.6490000   0.3310000
  -5.7890000  -4.2930000  -1.6090000  -6.3050000  -4.9080000  -0.9960000
  -6.6610000  -3.5270000  -2.4580000  -6.4940000  -4.0150000  -3.4180000
  -6.3230000  -2.0640000  -2.7030000  -6.5950000  -1.5680000  -3.7940000
  -8.1040000  -3.5660000  -2.1430000  -8.2010000  -3.3080000  -1.0880000
  -8.7470000  -2.8040000  -2.5840000  -8.7040000  -4.9440000  -2.5730000
  -8.2170000  -5.8440000  -2.1970000  -8.6260000  -5.1160000  -3.6470000
 -10.2100000  -4.8670000  -2.2970000 -10.4170000  -4.5650000  -1.2700000
 -10.5890000  -4.0270000  -2.8780000 -10.8170000  -6.2090000  -2.7020000
 -10.4250000  -6.4610000  -3.6880000 -10.5050000  -7.0070000  -2.0290000
 -12.2840000  -6.2610000  -2.7590000 -12.5730000  -5.6870000  -3.5390000
 -12.7760000  -5.8910000  -1.9580000 -12.6740000  -7.1730000  -2.9480000
  -5.6280000  -1.4220000  -1.7440000  -5.3330000  -1.8920000  -0.9000000
  -5.1650000  -0.0730000  -1.8750000  -5.9230000   0.5060000  -2.4030000
  -3.8630000  -0.0190000  -2.6070000  -3.7050000   0.8460000  -3.4330000
  -5.0180000   0.4670000  -0.4980000  -4.6470000  -0.3370000   0.1380000
  -6.3830000   0.7640000   0.1170000  -6.2010000   0.7630000   1.1920000
  -7.1450000   0.0030000  -0.0540000  -4.1330000   1.7120000  -0.3290000
  -4.4720000   2.5380000  -0.9550000  -4.1440000   2.0860000   0.6950000
  -3.0940000   1.4850000  -0.5710000  -7.1030000   2.0610000  -0.1640000
  -7.9470000   2.0630000   0.5270000  -6.5680000   2.9170000   0.2470000
  -7.4590000   2.1930000  -1.1860000  -2.9920000  -0.8960000  -2.3590000
  -3.1430000  -1.5590000  -1.6120000  -1.6810000  -0.8380000  -3.0740000
  -1.2250000   0.1090000  -2.7860000  -1.7840000  -0.9950000  -4.6640000
  -1.1300000  -0.4130000  -5.5050000  -0.8410000  -1.9980000  -2.5660000
  -1.5550000  -2.7510000  -2.2330000  -0.1890000  -2.2920000  -3.3890000
   0.1180000  -1.5300000  -1.4370000   1.2980000  -1.2030000  -1.5850000
  -0.3430000  -1.4120000  -0.2440000   0.1910000  -0.9880000   0.5020000
  -1.2470000  -1.7460000   0.0580000  -2.7940000  -1.8550000  -4.9930000
  -3.2510000  -2.2250000  -4.1720000  -3.4290000  -2.1490000  -6.2780000
  -2.7400000  -2.5420000  -7.0260000  -3.8550000  -0.8470000  -6.9710000
  -3.3990000  -0.6120000  -8.1210000  -4.5970000  -3.1520000  -6.1800000
  -4.1440000  -4.1430000  -6.1400000  -5.2490000  -2.9550000  -5.3300000
  -5.4830000  -3.2310000  -7.4220000  -5.0550000  -4.1190000  -8.4110000
  -4.2090000  -4.7710000  -8.2520000  -6.7530000  -2.5600000  -7.6070000
  -7.0150000  -1.9050000  -6.7890000  -5.8440000  -4.2440000  -9.6140000
  -5.5760000  -4.9800000 -10.3580000  -7.3230000  -2.4110000  -8.8730000
  -8.1300000  -1.7080000  -9.0170000  -6.8790000  -3.2570000  -9.9110000
  -7.5590000  -3.2760000 -11.1100000  -7.3790000  -4.0060000 -11.7080000
  -4.6840000  -0.0530000  -6.3350000  -4.9340000  -0.2950000  -5.3870000
  -4.9810000   1.3000000  -6.7720000  -5.4550000   1.2520000  -7.7520000
  -3.7440000   2.2320000  -7.0360000  -3.7600000   3.0530000  -8.0040000
  -5.9380000   1.9400000  -5.7110000  -5.6380000   2.9740000  -5.5380000
  -5.7270000   1.3360000  -4.8290000  -7.4170000   1.9680000  -6.0440000
  -7.7460000   0.9320000  -6.1210000  -8.1840000   2.6950000  -4.9050000
  -9.2480000   2.8110000  -5.1120000  -7.8140000   3.7090000  -4.7540000
  -8.1420000   2.1280000  -3.9750000  -7.7980000   2.5960000  -7.3740000
  -7.3450000   2.0510000  -8.2020000  -8.8660000   2.5780000  -7.5920000
  -7.4630000   3.6310000  -7.4450000  -2.6440000   2.1290000  -6.2640000
  -2.5720000   1.4180000  -5.5500000  -1.5750000   3.0970000  -6.3990000
  -1.8920000   4.1330000  -6.5240000  -0.8840000   2.8620000  -7.7410000
  -0.6800000   3.8470000  -8.4330000  -0.5190000   2.9550000  -5.3590000
  -0.3010000   1.8870000  -5.3300000  -1.1950000   3.3350000  -4.0520000
  -1.2800000   4.4200000  -3.9840000  -2.1860000   2.8990000  -3.9210000
   0.8630000   3.6050000  -5.5190000   1.3990000   3.0070000  -6.2560000
   0.8330000   4.6120000  -5.9340000   1.4760000   3.5000000  -4.6240000
  -0.4200000   2.9730000  -2.7870000  -1.0090000   3.0440000  -1.8720000
   0.5190000   3.5230000  -2.7260000  -0.2010000   1.9450000  -3.0750000
  -0.6660000   1.6170000  -8.1420000  -0.8670000   0.9060000  -7.4530000
  -0.1700000   1.2860000  -9.4980000   0.8160000   1.7500000  -9.4890000
  -1.0960000   1.8900000 -10.6230000  -0.6540000   2.2920000 -11.7120000
   0.0130000  -0.2320000  -9.6310000   0.4630000  -0.3990000 -10.6100000
  -1.0210000  -0.5770000  -9.6650000   0.6090000  -0.9300000  -8.4350000
   1.5620000  -0.4490000  -7.8160000   0.1700000  -2.1260000  -8.3260000
   0.5880000  -2.7690000  -7.6690000  -0.5280000  -2.3970000  -9.0030000
  -2.4130000   1.7580000 -10.4920000  -2.7550000   1.2350000  -9.6990000
  -3.4450000   2.1320000 -11.4520000  -3.0050000   1.7430000 -12.3700000
  -3.5640000   3.6290000 -11.7900000  -3.6830000   4.0820000 -12.9240000
  -4.7620000   1.3520000 -11.0780000  -4.7720000   1.3350000  -9.9880000
  -5.6860000   1.8600000 -11.3540000  -4.6520000   0.0160000 -11.8070000
  -3.8150000  -0.0270000 -12.5040000  -4.4790000  -0.7380000 -11.0380000
  -5.9360000  -0.2950000 -12.5270000  -6.1340000   0.6150000 -13.0930000
  -6.6960000  -0.3950000 -11.7520000  -5.8030000  -1.5310000 -13.4580000
  -5.0140000  -1.2790000 -14.1660000  -5.5710000  -2.4070000 -12.8510000
  -7.0510000  -1.8360000 -14.1720000  -7.2690000  -1.0320000 -14.7440000
  -6.9540000  -2.6990000 -14.6860000  -7.8730000  -1.8330000 -13.5840000
  -3.3030000   4.4180000 -10.7940000  -3.0480000   3.9670000  -9.9270000
  -3.0860000   5.8820000 -10.9430000  -3.3900000   6.2670000 -11.9160000
  -1.5280000   6.2340000 -11.0060000  -1.1120000   7.3600000 -10.8000000
  -3.9770000   6.5680000  -9.9610000  -3.5630000   6.7020000  -8.9610000
  -4.1540000   7.5730000 -10.3450000  -5.3060000   5.9220000  -9.8190000
  -5.1870000   4.8610000  -9.6010000  -5.8390000   6.1650000 -10.7380000
  -6.1420000   6.4580000  -8.6160000  -7.0130000   5.8030000  -8.5830000
  -5.5200000   6.3320000  -7.7300000  -6.5600000   7.9000000  -8.8360000
  -6.9750000   8.0400000  -9.8330000  -5.6600000   8.5140000  -8.8340000
  -7.6300000   8.1800000  -7.8730000  -7.9840000   9.1220000  -7.9680000
  -8.4690000   7.6750000  -8.1230000  -7.3820000   7.9420000  -6.9240000
  -0.7040000   5.2740000 -11.4400000  -1.1420000   4.3720000 -11.5620000
   0.7950000   5.3770000 -11.6310000   1.1110000   4.4590000 -12.1270000
   1.7270000   5.5030000 -10.4100000   2.7740000   4.8350000 -10.2910000
   1.1030000   6.5550000 -12.5870000   0.8020000   7.4950000 -12.1250000
   2.1760000   6.5890000 -12.7780000   0.3910000   6.3320000 -13.9500000
   0.6530000   7.1040000 -14.6740000  -0.6660000   6.5610000 -13.8110000
   0.3130000   4.9060000 -14.5300000   1.2120000   4.4470000 -14.9400000
  -0.1370000   4.2500000 -13.7850000  -0.5550000   5.0090000 -15.7200000
  -1.5690000   4.8240000 -15.3660000  -0.5590000   6.0130000 -16.1470000
  -0.1950000   4.0790000 -16.7580000  -0.4060000   3.1550000 -16.4080000
   0.7770000   4.1760000 -17.0160000  -0.7650000   4.3020000 -17.5610000
   1.4590000   6.3720000  -9.4580000   0.5220000   6.7490000  -9.4460000
   2.4520000   7.0070000  -8.5670000   3.3460000   7.3150000  -9.1090000
   3.0960000   6.0810000  -7.4630000   2.6860000   6.2530000  -6.2960000
   1.8720000   8.3210000  -8.0460000   1.9090000   9.1310000  -8.7740000
   2.6250000   8.6480000  -7.3290000   0.4320000   8.2750000  -7.3890000
  -0.2070000   7.1320000  -7.0360000   0.0650000   6.1860000  -7.4820000
   0.0090000   9.4680000  -6.7400000   0.6890000  10.3060000  -6.7390000
  -1.5030000   7.2350000  -6.4710000  -2.0250000   6.2900000  -6.4460000
  -1.1850000   9.5500000  -6.0490000  -1.4480000  10.4990000  -5.6030000
  -2.0140000   8.4630000  -6.0040000  -3.0010000   8.4590000  -5.5660000
   3.9890000   5.2060000  -7.9400000   4.3560000   5.4730000  -8.8420000
   4.6990000   4.2270000  -7.2150000   3.9010000   3.5430000  -6.9260000
   5.3210000   4.5980000  -5.8710000   5.4580000   3.7420000  -4.9970000
   5.6340000   3.5200000  -8.2710000   4.9520000   3.0270000  -8.9650000
   6.1530000   2.8930000  -7.5460000   6.6010000   4.5280000  -8.9450000
   7.1150000   5.1330000  -8.1980000   5.9390000   5.2520000  -9.4210000
   7.5600000   3.8610000  -9.9580000   7.9020000   4.7180000 -10.5380000
   8.3610000   3.3910000  -9.3860000   6.9400000   2.7790000 -10.8260000
   6.4430000   2.0730000 -10.1610000   7.7090000   2.3070000 -11.4390000
   5.8670000   3.3400000 -11.6660000   5.2770000   4.0100000 -11.1940000
   5.2820000   2.6210000 -12.0670000   6.3620000   3.8360000 -12.3940000
   5.6330000   5.8550000  -5.6290000   5.4390000   6.5580000  -6.3280000
   6.3840000   6.2870000  -4.4740000   7.2610000   5.6800000  -4.2500000
   5.6110000   6.1430000  -3.1500000   6.2370000   5.7560000  -2.1530000
   6.9220000   7.7950000  -4.6210000   7.4700000   7.9390000  -3.6910000
   5.7250000   8.7820000  -4.8210000   4.8520000   8.5350000  -4.2160000
   5.4110000   8.6650000  -5.8580000   7.8350000   7.8150000  -5.7870000
   7.2640000   7.6920000  -6.7080000   8.3540000   8.7730000  -5.8090000
   8.6420000   7.1110000  -5.5820000   6.1240000  10.2190000  -4.5960000
   5.6430000  10.9330000  -5.2640000   5.6960000  10.3990000  -3.6100000
   7.2110000  10.2550000  -4.5210000   4.2820000   6.3150000  -3.1320000
   3.9060000   6.5890000  -4.0280000   3.4220000   6.0310000  -1.9360000
   3.8220000   6.6060000  -1.1010000   3.4570000   4.5970000  -1.5320000
   3.5140000   4.2930000  -0.3340000   1.9710000   6.5370000  -2.2680000
   1.9000000   7.5440000  -2.6790000   1.5460000   5.7950000  -2.9440000
   0.9850000   6.4790000  -1.0890000   0.9470000   5.5070000  -0.5980000
   1.2420000   7.4870000   0.0280000   1.3990000   8.5240000  -0.2710000
   2.1440000   7.2070000   0.5720000   0.3880000   7.3410000   0.6900000
  -0.4140000   6.7450000  -1.7490000  -0.6610000   5.8430000  -2.3090000
  -0.5000000   7.6250000  -2.3850000  -1.2020000   6.8360000  -1.0020000
   3.6120000   3.6590000  -2.5310000   3.7580000   3.9750000  -3.4790000
   3.6920000   2.1580000  -2.3150000   2.8970000   1.8290000  -1.6460000
   4.9920000   1.7750000  -1.5000000   5.0160000   0.8140000  -0.7480000
   3.5920000   1.4910000  -3.7270000   2.5470000   1.6240000  -4.0060000
   4.3320000   1.8430000  -4.4460000   3.7660000  -0.0520000  -3.6170000
   2.9960000  -0.3680000  -2.9130000   4.6970000  -0.2690000  -3.0920000
   3.7060000  -0.8490000  -4.8890000   2.6690000  -0.9700000  -5.2030000
   4.3160000  -0.3560000  -5.6450000   4.2410000  -2.2370000  -4.5400000
   3.5520000  -2.6920000  -3.8290000   5.2200000  -2.1920000  -4.0620000
   4.4170000  -3.1220000  -5.7590000   4.7250000  -4.0340000  -5.4540000
   5.0400000  -2.8760000  -6.5140000   3.5380000  -3.2980000  -6.2240000
   6.0490000   2.5870000  -1.7040000   5.9310000   3.4250000  -2.2550000
   7.3520000   2.4810000  -0.9960000   7.6340000   1.4310000  -1.0720000
   7.1750000   2.8900000   0.5150000   7.6650000   2.2250000   1.4400000
   8.5260000   3.2040000  -1.8790000   8.3600000   4.2750000  -1.7610000
   8.4730000   2.7880000  -3.4010000   9.2910000   3.2830000  -3.9230000
   7.5190000   3.0360000  -3.8660000   9.8810000   2.9360000  -1.2390000
  10.7180000   3.3810000  -1.7780000   9.9060000   3.5720000  -0.3540000
   9.9400000   1.8820000  -0.9670000   8.6700000   1.2610000  -3.4870000
   7.8340000   0.7550000  -3.0050000   9.5810000   0.9320000  -2.9880000
   8.7650000   0.9260000  -4.5200000   6.4920000   4.0720000   0.7300000
   6.1030000   4.5860000  -0.0480000   6.2350000   4.6510000   2.1100000
   7.1690000   4.8290000   2.6430000   5.4650000   3.7190000   2.9860000
   5.9540000   3.4470000   4.0940000   5.4480000   5.9320000   2.0330000
   5.3680000   6.3450000   3.0380000   4.4890000   5.6890000   1.5750000
   5.9710000   7.0400000   1.2050000   7.2200000   7.0740000   0.6480000
   8.0320000   6.3820000   0.8150000   5.3410000   8.3490000   0.8810000
   7.3840000   8.2220000  -0.0410000   8.1480000   8.2880000  -0.6980000
   6.3060000   9.0420000   0.0360000   4.1480000   9.0490000   1.0570000
   3.4930000   8.6580000   1.8210000   6.0010000  10.1590000  -0.7350000
   6.7570000  10.6250000  -1.3490000   3.7880000  10.1070000   0.1990000
   2.8120000  10.5670000   0.2570000   4.6710000  10.5400000  -0.7560000
   4.3490000  11.2780000  -1.4760000   4.4690000   3.0390000   2.4710000
   4.0600000   3.3270000   1.5940000   3.8850000   1.8950000   3.1120000
   3.6570000   2.2930000   4.1010000   4.7990000   0.6700000   3.3840000
   5.0310000   0.3650000   4.5970000   2.6440000   1.5230000   2.2980000
   2.2080000   0.7090000   2.8770000   2.9360000   1.2670000   1.2790000
   1.5720000   2.6560000   2.2200000   2.0130000   3.5170000   1.7180000
   0.2690000   2.2170000   1.3910000  -0.2400000   1.3550000   1.8240000
   0.6080000   1.9480000   0.3910000  -0.5320000   2.9560000   1.4120000
   1.0400000   3.3060000   3.5130000   1.8790000   3.5560000   4.1620000
   0.2950000   4.0600000   3.2590000   0.4280000   2.5720000   4.0370000
   5.3540000   0.0930000   2.3850000   5.2780000   0.5430000   1.4840000
   6.1970000  -1.1370000   2.4340000   5.5410000  -2.0030000   2.5150000
   7.1880000  -1.2760000   3.6300000   7.0910000  -2.2570000   4.2980000
   6.9230000  -1.3100000   1.0840000   7.8160000  -1.8810000   1.3370000
   7.2600000  -0.3090000   0.8130000   6.0780000  -1.9840000   0.0410000
   5.1210000  -1.4690000  -0.0390000   6.7060000  -1.8760000  -1.3490000
   7.5410000  -2.5770000  -1.3510000   5.9650000  -2.0550000  -2.1280000
   7.1040000  -0.8750000  -1.5160000   5.8060000  -3.4090000   0.3440000
   5.6530000  -3.9170000  -0.6080000   6.6350000  -3.8820000   0.8700000
   4.8810000  -3.4340000   0.9210000   7.8850000  -0.1710000   3.9160000
   7.7400000   0.6180000   3.3030000   8.9360000  -0.0440000   5.0030000
   9.3320000  -1.0570000   5.0750000   8.3750000   0.2420000   6.4030000
   8.9550000  -0.1910000   7.3440000  10.0860000   0.8800000   4.5740000
  10.4540000   1.4810000   5.4060000   9.7760000   1.5820000   3.7990000
  11.2340000   0.0420000   4.0180000  10.9030000  -0.4190000   3.0870000
  11.5770000  -0.6980000   4.7400000  12.4820000   0.8840000   3.6470000
  12.7980000   1.8820000   4.4010000  13.2650000   0.5340000   2.6930000
   7.1130000   0.6910000   6.5460000   6.6360000   0.9920000   5.7080000
   6.3340000   0.6960000   7.7530000   6.9190000   0.9340000   8.6410000
   5.7460000  -0.6660000   8.0720000   5.7530000  -1.0550000   9.2580000
   5.2090000   1.7340000   7.6270000   4.6130000   1.6420000   6.7190000
   5.9400000   3.0500000   7.7280000   6.2160000   3.3410000   8.7420000
   6.8080000   3.0920000   7.0700000   4.2400000   1.6020000   8.8430000
   4.7820000   1.5770000   9.7880000   3.6860000   0.6640000   8.8210000
   3.6020000   2.4840000   8.9060000   5.1250000   4.2450000   7.2000000
   4.8010000   3.9290000   6.2080000   5.8390000   5.0680000   7.1920000
   4.2640000   4.4670000   7.8310000   5.2950000  -1.3660000   7.0090000
   5.5520000  -1.0370000   6.0900000   4.2990000  -2.3890000   6.9390000
   3.7300000  -2.1960000   7.8480000   4.9460000  -3.6890000   7.2910000
   4.2700000  -4.6690000   7.6610000   3.5550000  -2.4520000   5.6470000
   3.2110000  -1.4450000   5.4140000   4.2430000  -2.7510000   4.8560000
   2.5030000  -3.4300000   5.6650000   2.7170000  -4.1590000   6.2520000
   6.2760000  -3.7590000   7.2320000   6.8380000  -2.9340000   7.0790000
   7.1340000  -4.8550000   7.6670000   6.6810000  -5.7730000   7.2920000
   7.1050000  -4.9970000   9.1950000   7.0210000  -6.1350000   9.6910000
   8.4800000  -4.8730000   7.0220000   8.3050000  -4.7150000   5.9580000
   9.1650000  -4.0550000   7.2440000   9.1320000  -6.2190000   7.3360000
   8.8880000  -7.3150000   6.5160000   8.0340000  -7.3200000   5.8550000
  10.1680000  -6.1630000   8.2220000  10.3000000  -5.2420000   8.7710000
   9.6260000  -8.4700000   6.8170000   9.5160000  -9.3720000   6.2340000
  10.9450000  -7.2920000   8.4670000  11.7620000  -7.2260000   9.1700000
  10.7640000  -8.4040000   7.6590000  11.3740000  -9.2840000   7.7960000
   6.9610000  -3.9180000   9.8980000   6.9480000  -3.0430000   9.3950000
   6.6910000  -3.9440000  11.3580000   7.5240000  -4.3360000  11.9410000
   5.4830000  -4.8040000  11.7490000   5.5230000  -5.3660000  12.8480000
   6.5120000  -2.4880000  11.9500000   6.4860000  -2.5150000  13.0400000
   5.5790000  -1.9700000  11.7290000   7.6870000  -1.5310000  11.6610000
   7.8300000  -1.3800000  10.5910000   7.3710000  -0.1940000  12.3060000
   8.2010000   0.5020000  12.1860000   6.5740000   0.3250000  11.7720000
   7.1270000  -0.3640000  13.3540000   8.9680000  -2.1150000  12.3120000
   9.3790000  -2.9910000  11.8100000   8.8630000  -2.1650000  13.3960000
   9.7490000  -1.3590000  12.2300000   4.4550000  -4.8710000  10.9260000
   4.5870000  -4.4340000  10.0250000   3.2370000  -5.6660000  11.1630000
   2.8610000  -5.4850000  12.1700000   3.3870000  -7.2080000  11.0640000
   2.4460000  -7.9410000  11.3280000   2.0640000  -5.2190000  10.3060000
   1.2170000  -5.8740000  10.5100000   2.2300000  -5.2830000   9.2310000
   1.4840000  -3.8690000  10.6180000   2.1450000  -2.6870000  10.3840000
   3.1940000  -2.5680000  10.1540000   0.0960000  -3.5260000  10.9960000
   1.2970000  -1.6500000  10.5270000   1.5730000  -0.6850000  10.4150000
   0.0830000  -2.0660000  10.9730000  -1.1340000  -4.1890000  11.3010000
  -1.2060000  -5.2660000  11.3320000  -1.1240000  -1.3510000  11.3040000
  -1.2860000  -0.3150000  11.0470000  -2.3080000  -3.4080000  11.4660000
  -3.2550000  -3.8630000  11.7170000  -2.3410000  -2.0440000  11.4520000
  -3.2910000  -1.5310000  11.4110000   4.5250000  -7.6700000  10.5880000
   5.1050000  -6.9970000  10.1080000   4.7100000  -9.0600000  10.0930000
   3.8670000  -9.6700000  10.4170000   6.0990000  -9.7050000  10.5440000
   6.4260000 -10.8390000  10.1120000   4.4890000  -9.2460000   8.5860000
   5.3110000  -8.8430000   7.9940000   3.5300000  -8.7630000   8.3970000
   4.3270000 -10.5840000   8.1210000   5.0770000 -11.0210000   8.5310000
   6.8880000  -9.0240000  11.3990000   6.6040000  -8.0660000  11.5400000
   8.0910000  -9.4770000  12.0980000   8.5630000 -10.1930000  11.4260000
   7.7390000 -10.1950000  13.3920000   7.7110000 -11.4400000  13.4490000
   9.1440000  -8.3870000  12.1970000   8.9020000  -7.5800000  12.8880000
   9.2540000  -8.0770000  11.1580000  10.3950000  -8.8960000  12.6500000
  10.2730000  -9.8470000  12.6870000   7.2230000  -9.5150000  14.3340000
  -3.1760000  -2.5570000  10.6690000  -2.4260000  -3.7820000  10.1360000
  -2.7520000  -5.0020000  10.9600000  -1.7460000  -6.0950000  10.7270000
  -1.7960000  -6.6030000   9.2930000  -2.6690000  -7.8340000   9.2250000
  -1.9460000  -9.1240000   9.4780000  -0.4830000  -6.9120000   8.8620000
  -0.0090000  -6.3430000   7.7240000   0.5670000  -6.9830000   6.8870000
  -0.2290000  -4.9040000   7.6160000  -0.8410000  -4.3840000   6.5580000
  -1.2770000  -2.9730000   6.4820000  -2.6150000  -2.6380000   6.4450000
  -2.9930000  -1.3120000   6.3390000  -2.0590000  -0.3230000   6.2680000
  -2.4660000   0.9600000   6.1550000  -3.0900000   1.6030000   7.2550000
  -0.7200000  -0.6550000   6.3120000  -0.3400000  -1.9770000   6.4200000
  -3.1671010  -2.5715350  11.7688680  -2.6837103  -1.6409958  10.3104094
  -4.2156786  -2.5789356  10.3104094  -2.7216890  -3.9611436   9.0917416
  -1.3444798  -3.5907049  10.1969930  -2.7456037  -4.7285391  12.0254474
  -3.7447575  -5.3705540  10.6623415  -0.7387992  -5.7034706  10.9325511
  -1.9850859  -6.9328760  11.3984177  -2.2192769  -5.8284575   8.6365546
  -3.4648480  -7.7328349   9.9775899  -3.0543904  -7.8878607   8.1961301
  -1.8548074  -9.2867087  10.5620709  -2.5100272  -9.9546716   9.0287139
  -0.9430641  -9.0764435   9.0287139   0.1170233  -4.2406936   8.4224071
  -1.0334438  -5.0366618   5.6937095  -3.3809411  -3.4256101   6.4998142
  -4.0616217  -1.0525764   6.3116682  -2.6912773   1.1921367   8.1942612
  -2.8867303   2.6831924   7.2118039  -4.1758018   1.4322117   7.2118039
   0.0442855   0.1344696   6.2609573   0.7289908  -2.2337288   6.4567296
