
  506  0.0000000e+00
   4.0990000   4.5110000 -11.0540000   3.4840000   4.9140000 -11.7470000
   3.6760000   4.5420000 -10.1380000   4.9830000   4.9990000 -11.0970000
   4.3790000   3.1160000 -11.3450000   3.6280000   2.7310000 -12.0360000
   4.2340000   2.2890000 -10.0680000   4.1790000   2.8580000  -8.9940000
   5.7670000   2.8770000 -12.0170000   5.8930000   3.5350000 -12.8770000
   5.7690000   1.8310000 -12.3230000   6.7750000   3.1450000 -11.0460000
   7.5480000   2.6720000 -11.3640000   4.0090000   0.9680000 -10.0750000
   3.9920000   0.4870000 -10.9620000   3.7150000   0.1090000  -8.8250000
   2.8120000   0.4570000  -8.3230000   4.8880000   0.1570000  -7.7500000
   4.7420000  -0.2630000  -6.6050000   3.5700000  -1.3850000  -9.2180000
   3.5680000  -1.9730000  -8.3000000   4.5290000  -1.5920000  -9.6920000
   2.4640000  -1.6810000 -10.2370000   1.5130000  -1.7750000  -9.7120000
   2.4820000  -0.9440000 -11.0400000   2.5940000  -3.0760000 -10.9960000
   3.3250000  -3.9330000 -10.4790000   1.9630000  -3.2450000 -12.0240000
   6.0720000   0.5080000  -8.1450000   6.2980000   0.6270000  -9.1230000
   7.1640000   0.8230000  -7.1820000   7.3900000   0.0460000  -6.4520000
   6.8430000   2.1490000  -6.3140000   7.1290000   2.2410000  -5.1540000
   8.5770000   1.1250000  -7.8280000   9.3120000   1.3720000  -7.0620000
   8.5540000   1.9670000  -8.5200000   9.1800000   0.0010000  -8.6480000
   9.0080000  -0.9300000  -8.1080000  10.2500000   0.2010000  -8.7020000
   8.5550000  -0.1150000 -10.0320000   8.6400000   0.7980000 -10.8860000
   7.7470000  -1.0140000 -10.2720000   6.1910000   3.1450000  -6.9140000
   6.0270000   3.0980000  -7.9100000   5.6460000   4.3330000  -6.2320000
   6.5530000   4.5830000  -5.6800000   4.5090000   4.1480000  -5.3240000
   4.5950000   4.4920000  -4.1240000   5.3560000   5.4940000  -7.2280000
   4.4550000   5.1500000  -7.7360000   5.1790000   6.4790000  -6.7960000
   6.5540000   5.7330000  -8.2650000   6.3930000   6.5780000  -8.9340000
   6.5170000   4.7930000  -8.8170000   7.8950000   5.8850000  -7.5880000
   8.0810000   6.6640000  -6.6580000   8.8530000   5.2330000  -8.0640000
   3.4480000   3.4660000  -5.7660000   3.3450000   3.3540000  -6.7640000
   2.3390000   3.0110000  -4.8460000   1.8600000   3.8870000  -4.4080000
   2.9230000   2.1180000  -3.7110000   2.3590000   2.2590000  -2.6010000
   1.2740000   2.2700000  -5.6600000   1.6270000   1.2770000  -5.9410000
   0.3700000   2.0560000  -5.0890000   0.8720000   3.1300000  -6.9170000
   1.7420000   3.4180000  -7.5080000  -0.1550000   2.3000000  -7.6580000
   0.4810000   1.5880000  -8.1850000  -0.8540000   1.8070000  -6.9840000
  -0.6680000   2.9840000  -8.3350000   0.1020000   4.4460000  -6.4680000
  -0.6370000   4.2330000  -5.6960000   0.7610000   5.1730000  -5.9920000
  -0.3590000   4.9410000  -7.3220000   3.9980000   1.3090000  -3.9770000
   4.3410000   1.1710000  -4.9170000   4.5580000   0.4160000  -2.9190000
   3.7760000  -0.1240000  -2.3850000   5.3000000   1.1920000  -1.8270000
   5.1230000   0.9220000  -0.5990000   5.3590000  -0.6980000  -3.5070000
   4.7160000  -1.1450000  -4.2660000   6.2750000  -0.3150000  -3.9570000
   5.6570000  -1.7540000  -2.4740000   4.8020000  -2.4270000  -2.5400000
   5.7700000  -1.3870000  -1.4530000   6.8550000  -2.6180000  -2.7860000
   7.0610000  -2.8260000  -4.0240000   7.6280000  -2.9670000  -1.8550000
   6.1350000   2.1670000  -2.2340000   6.2630000   2.2560000  -3.2320000
   6.6630000   3.0640000  -1.2140000   7.2390000   2.4110000  -0.5580000
   5.6040000   3.8950000  -0.4280000   5.7620000   3.9470000   0.8020000
   7.7550000   3.9600000  -1.8850000   7.2630000   4.6640000  -2.5570000
   8.3200000   3.2860000  -2.5290000   8.7060000   4.5860000  -0.8240000
   9.4200000   3.8420000  -0.4710000   8.1090000   5.0190000  -0.0210000
   9.5430000   5.6760000  -1.4430000   8.8160000   6.3520000  -1.8940000
  10.1630000   6.1220000  -0.6650000  10.4110000   5.1090000  -2.4990000
  11.1360000   4.5020000  -2.1420000  10.3290000   5.2400000  -3.8330000
   9.1990000   5.6980000  -4.3080000   9.1350000   5.7100000  -5.3160000
   8.4740000   6.0860000  -3.7210000  11.2500000   4.7450000  -4.6270000
  11.0770000   4.8890000  -5.6120000  12.1180000   4.4350000  -4.2140000
   4.5330000   4.4050000  -1.1010000   4.6110000   4.2390000  -2.0950000
   3.4250000   4.9840000  -0.3780000   3.7750000   5.8840000   0.1270000
   2.8050000   4.1610000   0.7340000   2.9550000   4.5000000   1.9330000
   2.3850000   5.4850000  -1.3760000   2.8860000   5.9320000  -2.2350000
   1.8640000   4.6660000  -1.8720000   1.6230000   6.0230000  -0.8120000
   2.3080000   2.9680000   0.4110000   2.2910000   2.7850000  -0.5820000
   1.7710000   1.9830000   1.3320000   0.8580000   2.3290000   1.8160000
   2.7480000   1.6000000   2.4610000   2.3420000   1.4580000   3.6410000
   1.3950000   0.7520000   0.4810000   0.6210000   1.1070000  -0.2000000
   2.3010000   0.3240000   0.0520000   1.0060000  -0.0670000   1.0850000
   4.0690000   1.3930000   2.1380000   4.2550000   1.3850000   1.1450000
   5.1670000   1.3440000   3.1350000   4.9490000   0.4250000   3.6790000
   5.1120000   2.4100000   4.2220000   4.8330000   2.0410000   5.3920000
   6.4970000   1.1210000   2.4270000   6.5830000   1.8070000   1.5850000
   7.2710000   1.3770000   3.1510000   6.7730000  -0.3700000   2.0210000
   6.3710000  -1.0550000   2.7690000   6.1870000  -0.6460000   1.1450000
   8.2890000  -0.7490000   1.6790000   8.9150000  -0.9070000   2.5570000
   8.2470000  -1.6560000   1.0760000   8.9420000   0.3230000   0.9130000
   9.2950000   1.0540000   1.5140000   9.4350000   0.2850000  -0.3370000
   9.3170000  -0.6300000  -1.2300000   9.8340000  -0.5180000  -2.0900000
   9.0250000  -1.5860000  -1.0840000  10.1230000   1.3490000  -0.6050000
  10.4970000   1.3590000  -1.5430000  10.4210000   2.0450000   0.0650000
   5.2970000   3.7020000   3.8980000   5.4190000   3.9390000   2.9240000
   5.2560000   4.8810000   4.7520000   6.0360000   4.6880000   5.4890000
   3.9040000   5.0130000   5.5360000   3.7660000   5.6990000   6.5410000
   5.6200000   6.1030000   3.9070000   4.9290000   6.0540000   3.0650000
   5.4660000   7.0340000   4.4530000   7.0320000   6.0150000   3.2550000
   7.1950000   5.1190000   2.6560000   7.7330000   6.0330000   4.0900000
   7.4210000   7.2220000   2.4020000   6.7760000   8.2730000   2.4650000
   8.2360000   7.0740000   1.5210000   2.8550000   4.4940000   4.9700000
   3.0040000   3.8960000   4.1690000   1.4480000   4.5570000   5.4940000
   1.2540000   5.5770000   5.8260000   1.3590000   3.7510000   6.8170000
   0.8600000   4.1780000   7.8640000   0.3950000   4.0570000   4.4900000
  -0.4460000   3.6290000   5.0360000   0.7600000   3.1730000   3.9680000
  -0.2320000   5.0230000   3.4110000   0.4690000   5.1860000   2.5920000
  -1.5360000   4.3960000   2.9450000  -2.1150000   5.0860000   2.3310000
  -1.3280000   3.5200000   2.3310000  -2.2910000   4.2320000   3.7130000
  -0.5740000   6.3320000   4.0910000  -1.3590000   6.2300000   4.8410000
  -0.9920000   7.0080000   3.3460000   0.2910000   6.8660000   4.4830000
   1.9560000   2.5150000   6.8850000   2.3760000   2.1510000   6.0410000
   2.0160000   1.8220000   8.1580000   1.0930000   1.9930000   8.7120000
   3.0160000   2.3910000   9.0630000   2.7610000   2.5230000  10.2700000
   2.2670000   0.3200000   7.9220000   3.1340000   0.2000000   7.2730000
   2.6490000  -0.4180000   9.2270000   2.7180000  -1.4870000   9.0250000
   3.6120000  -0.2200000   9.6980000   1.9680000  -0.2340000  10.0580000
   1.0160000  -0.3440000   7.4530000   0.1010000  -0.3080000   8.0450000
   1.3650000  -1.3550000   7.2440000   0.7800000   0.0880000   6.4800000
   4.1680000   2.9020000   8.5670000   4.3900000   2.7400000   7.5960000
   5.2150000   3.5030000   9.4600000   5.4160000   2.8110000  10.2770000
   4.6710000   4.8060000  10.1600000   4.8830000   4.9600000  11.3820000
   6.4590000   3.8950000   8.6480000   6.2420000   4.5720000   7.8210000
   7.0630000   4.4900000   9.3330000   7.2900000   2.7220000   8.0950000
   7.0510000   1.7900000   8.6090000   6.9840000   2.5060000   7.0720000
   8.7710000   3.0330000   8.0550000   9.3570000   3.4130000   9.0660000
   9.4580000   2.8210000   7.0770000   3.7440000   5.5520000   9.5150000
   3.5510000   5.2820000   8.5610000   3.0690000   6.6700000  10.0670000
   3.6840000   7.1930000  10.8000000   1.8330000   6.3700000  10.9520000
   1.4050000   7.1870000  11.7220000   2.7800000   7.6430000   8.9170000
   3.7390000   7.9780000   8.5220000   2.1460000   7.1130000   8.2050000
   2.2220000   8.4780000   9.3410000   1.3370000   5.1510000  10.9220000
   1.6590000   4.5350000  10.1890000   0.3340000   4.6290000  11.8460000
   0.6580000   3.6070000  12.0400000   0.3190000   5.1880000  12.7820000
  -1.0340000   4.6370000  11.2390000  -2.0240000   4.7600000  11.9580000
  -1.1170000   4.9130000   9.9200000  -0.2600000   4.9700000   9.3890000
  -2.3070000   5.6580000   9.4030000  -2.5570000   6.4150000  10.1460000
  -3.5630000   4.7580000   9.2360000  -4.7130000   5.1850000   9.1920000
  -1.9670000   6.2770000   8.0010000  -1.7320000   5.4060000   7.3890000
  -2.8690000   6.7230000   7.5810000  -0.9050000   7.3210000   7.8810000
  -0.4900000   7.4800000   6.8860000   0.0210000   6.9150000   8.2860000
  -1.1400000   8.6350000   8.6310000  -2.3340000   9.1680000   8.6410000
  -0.2550000   9.1160000   9.3230000  -3.3390000   3.4750000   9.1530000
  -2.3640000   3.2510000   9.2900000  -4.2820000   2.4900000   8.5870000
  -5.3080000   2.7620000   8.8350000  -4.0310000   1.1060000   9.2220000
  -3.0780000   0.9170000   9.9410000  -4.0880000   2.5350000   7.0280000
  -4.6100000   1.7190000   6.5290000  -2.6510000   2.6000000   6.5030000
  -2.7910000   2.7570000   5.4330000  -2.0210000   3.3930000   6.9040000
  -4.7260000   3.8420000   6.4800000  -4.0080000   4.6620000   6.4760000
  -5.0820000   3.6470000   5.4690000  -5.4780000   4.1020000   7.2250000
  -1.8190000   1.2940000   6.7560000  -2.3520000   0.4980000   6.2360000
  -1.8090000   1.0290000   7.8130000  -0.8010000   1.5000000   6.4240000
  -4.9760000   0.1470000   9.0380000  -5.8340000   0.3560000   8.5480000
  -4.8910000  -1.1240000   9.7110000  -4.2740000  -1.0150000  10.6030000
  -4.1850000  -2.0860000   8.7900000  -4.5570000  -2.2640000   7.6450000
  -6.2960000  -1.6210000  10.1050000  -6.9540000  -1.7130000   9.2410000
  -6.7070000  -0.9370000  10.8480000  -6.3100000  -2.8610000  10.7850000
  -6.7630000  -2.8640000  11.6310000  -3.0300000  -2.5560000   9.1870000
  -2.7520000  -2.5900000  10.1570000  -2.0210000  -2.8400000   8.2340000
  -1.8640000  -1.9900000   7.5700000  -2.3900000  -3.9490000   7.3260000
  -2.0040000  -3.9220000   6.2050000  -0.6910000  -3.1430000   8.9170000
  -0.3350000  -2.1550000   9.2100000   0.0460000  -3.6410000   8.2860000
  -0.7610000  -4.0090000  10.0380000   0.0430000  -3.8250000  10.5300000
  -3.1270000  -4.9960000   7.7750000  -3.5450000  -4.9300000   8.6920000
  -3.6250000  -6.1250000   6.8960000  -2.7810000  -6.7380000   6.5800000
  -4.3660000  -6.7090000   7.4420000  -4.4240000  -5.6240000   5.7270000
  -4.3900000  -6.2130000   4.6180000  -5.1660000  -4.5140000   5.9270000
  -5.1690000  -4.0840000   6.8400000  -6.0130000  -3.9700000   4.8690000
  -6.8730000  -4.6180000   4.7020000  -5.2630000  -3.7090000   3.5220000
  -5.9070000  -3.8100000   2.4960000  -6.6420000  -2.5820000   5.2250000
  -7.2150000  -2.2010000   4.3790000  -5.6450000  -1.5830000   5.3750000
  -5.3030000  -1.7560000   6.2550000  -7.5460000  -2.6030000   6.5040000
  -7.8290000  -1.6320000   6.9100000  -6.9300000  -3.1150000   7.2430000
  -8.4400000  -3.1750000   6.2560000  -3.9040000  -3.4960000   3.6520000
  -3.5640000  -3.4370000   4.6010000  -3.0240000  -3.2000000   2.4830000
  -3.3940000  -2.3360000   1.9330000  -3.1170000  -4.3430000   1.4520000
  -3.1590000  -4.0360000   0.2670000  -1.6650000  -2.8980000   3.0380000
  -1.4130000  -3.7040000   3.7270000  -0.9670000  -2.9730000   2.2050000
  -1.4250000  -1.6060000   3.7660000  -2.0770000  -1.6470000   4.6390000
   0.0170000  -1.5040000   4.2090000   0.2790000  -2.3650000   4.8250000
   0.6680000  -1.6220000   3.3430000   0.2860000  -0.5960000   4.7470000
  -1.8400000  -0.3380000   3.0330000  -2.9220000  -0.2940000   2.9080000
  -1.4930000  -0.3480000   2.0000000  -1.4400000   0.4920000   3.6160000
  -3.2590000  -5.6340000   1.8990000  -3.6570000  -5.7720000   2.8170000
  -3.2630000  -6.7290000   0.9150000  -2.4630000  -6.5340000   0.2010000
  -4.5700000  -6.8850000   0.0700000  -4.5440000  -7.5010000  -0.9960000
  -2.9240000  -8.0890000   1.5180000  -2.7010000  -8.8310000   0.7520000
  -3.7280000  -8.4580000   2.1540000  -1.6370000  -7.9280000   2.4040000
  -1.4650000  -8.9150000   2.8330000  -1.7800000  -7.2330000   3.2320000
  -0.4000000  -7.5980000   1.6720000   0.4410000  -6.8160000   2.1350000
  -0.1930000  -8.2010000   0.5960000  -5.7050000  -6.4380000   0.5800000
  -5.6790000  -5.8870000   1.4260000  -7.0050000  -6.3510000  -0.1380000
  -7.1510000  -7.2540000  -0.7310000  -7.0050000  -5.3180000  -1.2270000
  -7.5160000  -5.5540000  -2.3840000  -8.1880000  -6.1030000   0.8680000
  -8.0390000  -6.8660000   1.6320000  -8.0240000  -5.1420000   1.3560000
  -9.5690000  -6.2370000   0.2950000  -9.5890000  -7.2660000  -0.0650000
  -9.6280000  -5.5760000  -0.5700000 -10.7010000  -6.1140000   1.4140000
 -10.3970000  -6.1530000   2.6460000 -11.8420000  -5.8360000   0.9800000
  -6.2700000  -4.1480000  -0.9620000  -5.7400000  -4.0370000  -0.1090000
  -6.1040000  -2.9940000  -1.8020000  -7.0240000  -2.7550000  -2.3360000
  -5.0340000  -3.2190000  -2.9340000  -5.2380000  -2.8420000  -4.0990000
  -5.8360000  -1.7480000  -0.9050000  -4.9630000  -1.9390000  -0.2800000
  -7.0350000  -1.4650000  -0.0700000  -7.7910000  -0.9630000  -0.6740000
  -7.5220000  -2.4030000   0.1950000  -5.5190000  -0.5580000  -1.7530000
  -5.3330000   0.3060000  -1.1140000  -4.5870000  -0.7380000  -2.2870000
  -6.2590000  -0.3290000  -2.5200000  -6.9880000  -0.7430000   1.2190000
  -6.1920000  -1.2000000   1.8070000  -6.7950000   0.3300000   1.1820000
  -7.9290000  -0.8910000   1.7490000  -3.8940000  -3.8070000  -2.4830000
  -3.6660000  -3.8820000  -1.5010000  -2.8630000  -4.3830000  -3.3830000
  -2.3540000  -3.5370000  -3.8450000  -3.4640000  -5.2390000  -4.5830000
  -3.2170000  -5.0230000  -5.7510000  -1.8760000  -5.2100000  -2.4720000
  -1.6060000  -4.5360000  -1.6590000  -2.3380000  -6.1060000  -2.0570000
  -0.5680000  -5.6530000  -3.1790000  -0.0420000  -4.7570000  -3.5060000
  -0.8430000  -6.2770000  -4.0300000   0.4010000  -6.3840000  -2.2620000
   1.2350000  -6.6140000  -2.9260000  -0.1240000  -7.2640000  -1.8900000
   0.9070000  -5.3760000  -1.1240000   1.5690000  -4.6480000  -1.5920000
   0.1420000  -4.8100000  -0.5920000   1.7140000  -6.0680000  -0.1680000
   2.5170000  -6.5370000  -0.5620000   1.2650000  -6.7570000   0.4180000
   2.0470000  -5.3860000   0.4980000  -4.3270000  -6.1860000  -4.2090000
  -4.5250000  -6.3040000  -3.2250000  -5.1330000  -7.0950000  -5.1050000
  -4.4700000  -7.6090000  -5.8000000  -6.0690000  -6.3500000  -6.0190000
  -6.0820000  -6.4750000  -7.2140000  -5.9110000  -8.1650000  -4.2450000
  -5.2740000  -8.5480000  -3.4470000  -6.6490000  -7.5240000  -3.7620000
  -6.4760000  -9.3830000  -5.0080000  -5.7770000  -9.8680000  -5.6900000
  -7.2890000  -8.9470000  -5.5870000  -6.9770000 -10.4160000  -3.9820000
  -8.0960000 -10.1910000  -3.4850000  -6.1920000 -11.3460000  -3.6400000
  -6.8860000  -5.4160000  -5.4390000  -6.9510000  -5.4010000  -4.4310000
  -7.8630000  -4.6650000  -6.2460000  -8.4610000  -5.3800000  -6.8120000
  -7.2840000  -3.7470000  -7.2910000  -7.8150000  -3.5520000  -8.3260000
  -8.8040000  -3.8540000  -5.3020000  -8.1780000  -3.3840000  -4.5440000
  -9.2050000  -3.0540000  -5.9240000  -9.8700000  -4.7210000  -4.6140000
 -10.3910000  -5.2410000  -5.4170000  -9.4870000  -5.3930000  -3.8450000
 -10.9200000  -3.7560000  -3.9810000 -11.3650000  -3.1980000  -4.8050000
 -10.5170000  -3.0550000  -3.2500000 -12.0270000  -4.5580000  -3.3050000
 -11.6190000  -5.2100000  -2.5320000 -12.7140000  -3.8820000  -2.7950000
 -12.8540000  -5.3960000  -4.2580000 -13.1680000  -4.8680000  -5.0590000
 -12.3350000  -6.1900000  -4.6040000 -13.6850000  -5.7150000  -3.7810000
  -6.0850000  -3.2240000  -7.0660000  -5.5350000  -3.5480000  -6.2830000
  -5.3980000  -2.1920000  -7.8710000  -6.1560000  -1.8060000  -8.5530000
  -4.2110000  -2.8310000  -8.5780000  -3.6610000  -2.1780000  -9.4420000
  -4.9710000  -0.9910000  -7.0350000  -4.2950000  -1.2480000  -6.2200000
  -4.3650000  -0.3650000  -7.6900000  -6.0460000  -0.0410000  -6.3520000
  -6.7830000  -0.7210000  -5.9250000  -5.5280000   0.8830000  -5.2070000
  -4.9490000   0.3350000  -4.4640000  -4.9110000   1.5560000  -5.8020000
  -6.3650000   1.3310000  -4.6710000  -6.7300000   0.7150000  -7.4630000
  -7.6510000   0.1740000  -7.6800000  -6.9080000   1.7310000  -7.1110000
  -6.0730000   0.9650000  -8.2960000  -3.9640000  -4.1320000  -8.4900000
  -4.6750000  -4.5910000  -7.9390000  -3.0980000  -4.8930000  -9.3380000
  -2.0500000  -4.5940000  -9.3580000  -3.5020000  -4.8620000 -10.7680000
  -4.6750000  -5.2850000 -11.0670000  -3.0120000  -6.3310000  -8.9650000
  -4.0080000  -6.6500000  -8.6540000  -2.5860000  -6.9250000  -9.7730000
  -2.1830000  -6.3550000  -7.8380000  -2.6540000  -5.8810000  -7.1480000
  -2.7500000  -4.4900000 -11.6660000   1.9380000  -0.9770000  -9.4580000
   0.6690000  -0.3910000  -9.5280000   0.0360000   0.0440000  -8.3490000
  -1.2790000   0.4260000  -8.3940000  -1.9220000   0.8610000  -7.2420000
  -1.2650000   0.9720000  -6.0470000  -1.9570000   1.4160000  -4.7920000
  -2.4410000   0.5780000  -4.0440000  -2.0970000   2.8670000  -4.4170000
  -2.9520000   3.2190000  -3.4050000  -3.0870000   4.5500000  -3.0980000
  -2.2890000   5.4660000  -3.7020000  -1.3430000   5.1150000  -4.6920000
  -1.3020000   3.7790000  -5.0510000   0.0910000   0.5970000  -6.0190000
   0.7000000   0.6510000  -4.7670000   0.7260000   0.1350000  -7.1180000
   2.2233738  -1.1087802  -8.4038673   1.9174817  -1.9568071  -9.9575569
   2.6705577  -0.3259992  -9.9575569  -1.8279858   0.3880770  -9.3464581
  -2.9890489   1.1235139  -7.2919313  -3.5162354   2.4533602  -2.8523390
  -3.8401423   4.8731048  -2.3642562  -2.3817101   6.5224998  -3.4100873
  -0.6774975   5.8610531  -5.1508149  -0.6245021   3.4493254  -5.8524432
   1.6530158   0.4015106  -4.6689392   1.7808029  -0.1707295  -7.0553867
