
  421  0.0000000e+00
  -4.1070000  -4.3120000 -11.2260000  -4.9790000  -3.8150000 -11.3420000
  -4.2430000  -5.0050000 -10.5040000  -3.8450000  -4.8550000 -12.0350000
  -2.9860000  -3.4400000 -10.8640000  -2.1450000  -4.0830000 -10.6050000
  -3.4720000  -2.3760000  -9.8930000  -4.6260000  -1.9130000  -9.9550000
  -2.5770000  -2.6250000 -12.1000000  -1.9920000  -3.2710000 -12.7540000
  -1.8680000  -1.8410000 -11.8360000  -3.6550000  -2.0210000 -12.8520000
  -3.8900000  -1.2140000 -12.3870000  -2.5750000  -1.9560000  -8.9660000
  -1.6660000  -2.3900000  -9.0420000  -2.7250000  -0.8370000  -8.0740000
  -2.9050000   0.1220000  -8.5600000  -1.8150000  -0.7630000  -7.4790000
  -3.9580000  -0.9480000  -7.0960000  -4.3900000  -2.0380000  -6.7250000
  -4.6270000   0.1790000  -6.7010000  -4.2210000   1.0640000  -6.9680000
  -5.7620000   0.1520000  -5.8040000  -6.5260000  -0.5070000  -6.2150000
  -5.4190000  -0.2630000  -4.8570000  -6.5260000   1.5420000  -5.6500000
  -6.9750000   2.1610000  -6.6240000  -6.7890000   1.9680000  -4.3900000
  -6.4640000   1.4160000  -3.6090000  -7.6590000   3.1340000  -4.1610000
  -8.4370000   3.1090000  -4.9240000  -7.0650000   4.5180000  -4.2230000
  -7.6420000   5.4690000  -4.6750000  -8.3530000   2.8790000  -2.7800000
  -9.0290000   3.7010000  -2.5450000  -8.7970000   1.8830000  -2.7730000
  -7.4260000   2.9770000  -1.7290000  -6.9670000   2.1360000  -1.7830000
  -5.8230000   4.6540000  -3.7280000  -5.4440000   3.8260000  -3.2910000
  -5.1760000   5.9510000  -3.5670000  -5.7620000   6.4490000  -2.7930000
  -5.2410000   6.6760000  -4.3780000  -3.6980000   5.9510000  -3.2340000
  -3.1430000   4.8630000  -3.3170000  -3.0960000   7.0250000  -2.6800000
  -3.5190000   7.9350000  -2.7920000  -1.7560000   6.9200000  -1.9670000
  -1.4790000   5.8880000  -1.7500000  -1.9040000   7.5340000  -0.5550000
  -2.6650000   8.4660000  -0.2870000  -0.7070000   7.5380000  -2.8600000
   0.2340000   7.6500000  -2.3220000  -0.9630000   8.5460000  -3.1860000
  -0.4000000   6.6630000  -4.0960000  -0.1470000   5.6800000  -3.6990000
  -1.3060000   6.6180000  -4.7020000   0.6920000   7.1260000  -5.0260000
   0.3630000   8.0840000  -5.4300000   1.6920000   7.1760000  -4.5960000
   0.7180000   6.1300000  -6.2390000  -0.1790000   6.3360000  -6.8210000
   0.5700000   5.1260000  -5.8410000   1.9520000   6.2940000  -7.0530000
   1.9830000   7.1230000  -7.6280000   2.1800000   5.4440000  -7.5500000
   2.7530000   6.4820000  -6.4670000  -1.2130000   6.8680000   0.4310000
  -0.5630000   6.1610000   0.1170000  -1.4220000   7.1260000   1.8920000
  -2.4400000   6.8320000   2.1450000  -1.2560000   8.1580000   2.2020000
  -0.4390000   6.1840000   2.5850000   0.7500000   6.1950000   2.1630000
  -0.8680000   5.3190000   3.5530000  -1.8640000   5.2630000   3.7130000
  -0.1190000   4.3750000   4.3510000   0.7210000   4.1770000   3.6840000
  -0.8560000   3.0310000   4.5800000  -2.0730000   3.0300000   4.7470000
   0.4030000   5.0650000   5.6440000   0.8540000   4.3140000   6.2930000
  -0.4710000   5.3240000   6.2400000   1.4130000   6.1850000   5.5930000
   0.8320000   7.0380000   5.2420000   2.6520000   5.8340000   4.8220000
   2.3680000   5.8360000   3.7690000   3.1480000   4.9090000   5.1180000
   3.4090000   6.5970000   5.0040000   1.8840000   6.4510000   7.0470000
   2.5990000   7.2740000   7.0360000   1.0570000   6.7280000   7.7010000
   2.3880000   5.6000000   7.5050000  -0.1120000   1.9470000   4.8710000
   0.8570000   2.1340000   4.6580000  -0.5930000   1.0230000   5.9200000
   0.2620000   0.4380000   6.2580000  -0.8730000   1.7230000   6.7070000
  -1.8110000   0.1550000   5.4860000  -2.4060000  -0.5630000   6.3000000
  -2.2000000   0.1700000   4.2290000  -1.7290000   0.7430000   3.5430000
  -3.1090000  -0.8270000   3.6770000  -4.0870000  -0.8500000   4.1590000
  -3.3900000  -0.6260000   2.6430000  -2.5930000  -2.2560000   3.6650000
  -1.5210000  -2.5910000   4.1840000  -3.2950000  -3.1100000   2.8820000
  -4.1650000  -2.7200000   2.5490000  -3.0680000  -4.5070000   2.7610000
  -3.6710000  -4.9370000   1.9610000  -2.0260000  -4.7170000   2.5200000
  -3.3010000  -5.2730000   4.0650000  -4.2310000  -5.0330000   4.8520000
  -2.3430000  -6.1900000   4.2850000  -1.8520000  -6.5140000   3.4630000
  -1.8460000  -6.6550000   5.5670000  -2.5370000  -6.2380000   6.2990000
  -0.4080000  -6.0570000   5.7100000   0.2050000  -6.2400000   6.7280000
  -2.0440000  -8.1300000   5.6040000  -2.2140000  -8.4310000   6.6380000
  -1.0640000  -8.5720000   5.4230000  -3.1070000  -8.7630000   4.7400000
  -4.4020000  -8.8550000   5.0590000  -4.8420000  -8.3810000   5.9250000
  -2.9950000  -9.3620000   3.3860000  -5.0950000  -9.3650000   4.0050000
  -6.0820000  -9.5800000   3.9910000  -4.2550000  -9.8210000   2.9720000
  -1.9070000  -9.6500000   2.5500000  -0.9160000  -9.4250000   2.9150000
  -4.4670000 -10.5610000   1.8330000  -5.4970000 -10.8000000   1.6150000
  -2.0660000 -10.3710000   1.3320000  -1.1610000 -10.6190000   0.7970000
  -3.3610000 -10.7720000   0.9850000  -3.5870000 -11.2860000   0.0620000
   0.0860000  -5.4110000   4.6750000  -0.6180000  -5.2150000   3.9780000
   1.4230000  -4.8230000   4.5420000   2.1510000  -5.6240000   4.4110000
   1.7190000  -4.2790000   5.4380000   1.6430000  -3.9600000   3.3070000
   0.8320000  -3.9820000   2.3880000   2.8570000  -3.3690000   3.1740000
   3.5100000  -3.4490000   3.9400000   3.2540000  -2.6310000   1.9800000
   4.1000000  -3.1890000   1.5790000   2.4670000  -2.6970000   1.2290000
   3.6160000  -1.1540000   2.2140000   3.6560000  -0.3820000   1.2720000
   3.8470000  -0.8110000   3.5290000   3.9220000  -1.5020000   4.2620000
   4.4450000   0.4420000   3.9050000   4.4080000   0.4010000   4.9940000
   5.4990000   0.4710000   3.6290000   3.7420000   1.6600000   3.4410000
   2.6660000   1.9530000   3.9820000   4.3450000   2.4750000   2.5190000
   5.1780000   2.0960000   2.0920000   3.8460000   3.6640000   1.8420000
   3.4570000   4.3340000   2.6080000   2.7080000   3.2510000   0.8380000
   2.7990000   2.3610000   0.0120000   4.9780000   4.2970000   1.0560000
   5.6500000   3.5020000   0.7320000   4.5430000   4.7450000   0.1620000
   5.6410000   5.4360000   1.8450000   5.6620000   5.1020000   2.8820000
   4.8400000   6.7270000   1.7990000   5.4130000   7.5400000   2.2450000
   4.5800000   7.0650000   0.7960000   3.9490000   6.6730000   2.4250000
   6.9900000   5.6560000   1.2670000   7.4700000   4.7010000   1.0520000
   6.9200000   6.2150000   0.3340000   7.5560000   6.2170000   2.0110000
   1.5520000   3.9000000   1.0100000   1.4650000   4.6130000   1.7200000
   0.3080000   3.4380000   0.3800000   0.5410000   3.3660000  -0.6820000
  -0.4610000   4.1720000   0.6210000  -0.2190000   2.1320000   0.9510000
  -1.2730000   2.2130000   1.5390000   0.5050000   1.0630000   0.7210000
   1.3810000   1.1200000   0.2210000   0.2200000  -0.1840000   1.2680000
   0.2760000  -0.2630000   2.3540000   0.9880000  -0.8820000   0.9330000
  -1.0380000  -0.8670000   0.7900000  -1.9620000  -0.2560000   0.3250000
  -1.1000000  -2.2580000   0.7770000  -0.2590000  -2.7700000   1.0010000
  -1.9990000  -2.9360000  -0.1070000  -3.0120000  -2.6730000   0.1980000
  -1.9500000  -4.0210000  -0.0220000  -1.9350000  -2.5960000  -1.6100000
  -0.7900000  -2.2710000  -1.9910000  -3.0140000  -2.6480000  -2.4530000
  -3.9060000  -2.9780000  -2.1150000  -2.9090000  -2.6560000  -3.9230000
  -2.2760000  -1.8040000  -4.1720000  -3.9140000  -2.5150000  -4.3220000
  -2.2000000  -3.9070000  -4.4820000  -2.4650000  -5.0110000  -4.0100000
  -1.2420000  -3.7330000  -5.4250000  -1.0840000  -2.7620000  -5.6520000
  -0.1520000  -4.7330000  -5.7810000   0.2780000  -5.0980000  -4.8490000
   0.9490000  -4.0200000  -6.5540000   0.7010000  -3.2220000  -7.4970000
  -0.7040000  -5.9490000  -6.5810000   0.0800000  -6.5090000  -7.0910000
  -1.1520000  -6.6590000  -5.8850000  -1.8050000  -5.5050000  -7.5470000
  -1.4390000  -4.6580000  -8.1270000  -2.7590000  -5.2060000  -7.1130000
  -2.0400000  -6.5840000  -8.6070000  -1.5990000  -7.6960000  -8.3900000
  -2.7350000  -6.3420000  -9.6350000   2.2460000  -4.1760000  -6.1410000
   2.5010000  -4.7610000  -5.3590000   3.4260000  -3.4480000  -6.7420000
   4.2370000  -4.1000000  -6.4180000   3.5300000  -3.3710000  -7.8240000
   3.6790000  -2.0410000  -6.1000000   3.0500000  -1.7050000  -5.0360000
   4.5700000  -1.2590000  -6.6960000   4.9540000  -1.6310000  -7.5530000
   5.4370000  -0.3410000  -5.9320000   4.8290000   0.5230000  -5.6640000
   6.2260000   0.0290000  -6.5850000   6.1190000  -0.8960000  -4.6750000
   6.4440000  -2.0560000  -4.6040000   6.2860000  -0.0960000  -3.6220000
   5.8940000   0.8330000  -3.6790000   6.3950000  -0.5900000  -2.1780000
   7.3020000  -1.1900000  -2.1090000   5.2880000  -1.5690000  -1.6730000
   5.4260000  -2.0850000  -0.5660000   6.5490000   0.6440000  -1.2690000
   5.7220000   1.2980000  -1.5470000   6.3940000   0.3360000  -0.2360000
   7.7870000   1.4940000  -1.2680000   9.0110000   0.8580000  -1.5860000
   9.0260000  -0.2210000  -1.6440000   7.8640000   2.8910000  -0.9810000
   6.9750000   3.4550000  -0.7360000  10.2100000   1.5860000  -1.8030000
  11.1410000   1.0960000  -2.0470000   9.0100000   3.6090000  -1.2250000
   8.9980000   4.6830000  -1.1170000  10.2190000   2.9360000  -1.5010000
  11.0960000   3.5410000  -1.6800000   4.1740000  -1.7530000  -2.4230000
   4.0430000  -1.3520000  -3.3400000   2.9730000  -2.2870000  -1.7670000
   2.1620000  -2.1220000  -2.4760000   2.6760000  -1.6120000  -0.9660000
   3.0250000  -3.8450000  -1.4110000   4.0560000  -4.5180000  -1.6570000
   1.8180000  -4.3450000  -1.0200000   0.9850000  -3.7770000  -1.0730000
   1.6670000  -5.8350000  -0.7400000   2.6090000  -6.3370000  -0.9580000
   1.4860000  -6.0030000   0.3220000   0.5660000  -6.5310000  -1.5530000
   0.6280000  -6.5700000  -2.7650000  -0.4440000  -7.0720000  -0.8500000
  -0.4300000  -6.9050000   0.1460000  -1.7100000  -7.4260000  -1.3860000
  -2.0720000  -6.8120000  -2.2110000  -2.8000000  -7.1470000  -0.3580000
  -2.5050000  -6.6650000   0.7340000  -1.7640000  -8.8870000  -1.8510000
  -1.0710000  -9.4130000  -1.1950000  -2.7420000  -9.3370000  -1.6820000
  -1.3460000  -9.1470000  -3.3370000  -2.0010000  -8.5990000  -4.0140000
  -0.3330000  -8.7680000  -3.4760000  -1.4570000 -10.6500000  -3.5980000
  -0.7770000 -11.1000000  -2.8740000  -2.5210000 -10.8870000  -3.5960000
  -1.0920000 -10.9490000  -5.0490000  -1.5090000 -11.9090000  -5.3540000
  -1.4870000 -10.1490000  -5.6740000   0.3760000 -11.0440000  -5.0870000
   0.7420000 -11.7610000  -4.4770000   0.7800000 -10.1200000  -5.0340000
   0.6170000 -11.3510000  -6.0190000  -4.0610000  -7.3930000  -0.7110000
  -4.3260000  -7.7720000  -1.6090000  -5.0920000  -7.0070000   0.1900000
  -5.9840000  -7.6260000   0.0930000  -4.7810000  -6.8940000   1.2280000
  -5.5080000  -5.5500000  -0.0340000  -4.9270000  -4.8470000  -0.8120000
  -6.4240000  -5.0860000   0.7810000  -6.6850000  -5.7070000   1.5330000
  -7.2460000  -3.8510000   0.5820000  -7.6180000  -3.8110000  -0.4420000
  -6.4230000  -2.6030000   0.9020000  -6.0340000  -2.4060000   2.0590000
  -8.5160000  -3.9410000   1.4420000  -8.1780000  -3.6530000   2.4380000
  -9.2080000  -3.1240000   1.2370000  -9.2230000  -5.2090000   1.5380000
 -10.2170000  -5.6010000   0.7100000 -10.5480000  -5.0470000  -0.1560000
  -8.9640000  -6.3470000   2.4040000 -10.7210000  -6.8810000   1.0710000
 -11.3130000  -7.4230000   0.4580000  -9.8950000  -7.3640000   2.0820000
  -8.0920000  -6.6160000   3.5200000  -7.4230000  -5.8460000   3.8750000
  -9.8450000  -8.6430000   2.6350000 -10.3490000  -9.4460000   2.1170000
  -8.0690000  -7.9110000   4.0690000  -7.4620000  -8.0460000   4.9520000
  -8.8950000  -8.9510000   3.6580000  -8.8750000  -9.9490000   4.0690000
  -6.1900000  -1.7470000  -0.0280000  -6.4080000  -2.0530000  -0.9660000
  -5.4540000  -0.4880000   0.1350000  -4.4780000  -0.7900000   0.5130000
  -5.8520000   0.1740000   0.9040000  -5.2720000   0.4610000  -1.0640000
  -6.2990000   0.6990000  -1.7540000  -4.0280000   0.9930000  -1.2570000
  -3.2610000   0.7130000  -0.6620000  -3.6250000   2.0820000  -2.2190000
  -2.8640000   2.6710000  -1.7060000  -4.4840000   2.7070000  -2.4640000
  -3.0170000   1.5960000  -3.5860000  -3.1880000   0.4970000  -3.9040000
  -2.3950000   2.4840000  -4.3590000  -2.4380000   3.4710000  -4.1520000
  -1.6910000   2.1440000  -5.6340000  -2.2590000   1.3710000  -6.1510000
  -0.1700000   1.7940000  -5.4720000   0.4840000   1.6210000  -6.5010000
  -1.7080000   3.4360000  -6.4660000  -1.3610000   4.2530000  -5.8340000
  -1.0200000   3.3650000  -7.3080000  -3.0120000   3.7100000  -7.2320000
  -3.7880000   2.7330000  -7.3380000  -3.3180000   4.7810000  -7.7300000
   0.2530000   1.7600000  -4.1880000  -0.4420000   1.9430000  -3.4790000
   1.6190000   1.6850000  -3.7110000   2.0970000   0.8710000  -4.2540000
   1.5970000   1.4130000  -2.6550000   2.4370000   2.9950000  -3.8250000
   1.8970000   4.0930000  -3.6440000   3.7270000   2.9170000  -4.0630000
   4.1230000   2.0050000  -4.2380000   4.6320000   4.0600000  -4.0450000
   4.1940000   4.9520000  -4.4930000   5.8180000   3.8530000  -4.9600000
   6.2540000   2.7370000  -5.1540000   5.0030000   4.4750000  -2.6020000
   6.0710000   4.2680000  -2.5220000   4.4670000   3.7390000  -2.0040000
   4.6880000   5.8950000  -2.1890000   5.6740000   6.8830000  -2.3220000
   6.6860000   6.5580000  -2.5150000   3.4150000   6.2430000  -1.7430000
   2.6870000   5.4660000  -1.5610000   5.3710000   8.2540000  -1.9870000
   6.1320000   9.0050000  -1.8390000   3.1290000   7.5620000  -1.3760000
   2.2080000   7.7550000  -0.8450000   4.0820000   8.5990000  -1.5530000
   3.7330000   9.8360000  -1.0930000   4.4210000  10.5050000  -1.0890000
   6.1800000   4.8210000  -5.6370000  -3.1950000   1.0670000   9.5520000
  -2.7950000  -0.3060000   9.1710000  -1.6930000  -0.3190000   8.2070000
  -1.1240000  -1.6310000   7.9560000  -0.1060000  -1.7110000   6.8570000
   0.6020000  -3.0530000   6.8320000   2.0200000  -3.0040000   6.4250000
   0.8790000  -0.7270000   7.0940000   1.0930000   0.2180000   6.2000000
   0.3930000   0.3820000   5.2540000   2.2610000   1.0140000   6.5550000
   2.2460000   2.3630000   6.3310000   3.4040000   3.1940000   6.5400000
   4.6730000   2.7090000   6.4260000   5.7460000   3.5160000   6.6250000
   5.5520000   4.8300000   6.9290000   6.5750000   5.6820000   7.1420000
   7.8480000   5.3220000   6.6340000   4.2660000   5.3300000   7.0480000
   3.2030000   4.5130000   6.8360000  -3.2194228   1.1508314  10.6485290
  -2.4691444   1.7865489   9.1453269  -4.1937375   1.2841183   9.1453269
  -2.4791975  -0.8458881  10.0758700  -3.6619805  -0.7882971   8.6958849
  -2.0671777   0.0807676   7.2529681  -0.8888927   0.2905555   8.6450109
  -0.6430254  -1.9717305   8.8847444  -1.9646864  -2.2587074   7.6255006
  -0.6308447  -1.5657994   5.9012517   0.5520712  -3.4837777   7.8429094
   0.0854867  -3.6583787   6.0725722   2.6580280  -2.9819525   7.3207869
   2.2603671  -3.8943750   5.8254535   2.1983320  -2.0991565   5.8254535
   3.1459456   0.5344662   6.9987551   1.3151183   2.8309099   5.9781266
   4.8292003   1.6507610   6.1696183   6.7656505   3.1118658   6.5414038
   8.5351195   5.1276850   7.4707248   7.7541029   4.4151854   6.0184754
   8.2429173   6.1436872   6.0184754   4.1065737   6.3855330   7.3133929
   2.1802094   4.9123611   6.9024096
