
  506  0.0000000e+00
   4.5000000   4.8600000 -11.0000000   3.5100000   4.9700000 -11.1200000
   4.8600000   5.1300000 -10.1000000   4.9100000   5.4400000 -11.7200000
   4.8500000   3.4700000 -11.1000000   4.5900000   3.0900000 -12.0900000
   4.3100000   2.5900000  -9.9800000   3.8500000   3.1300000  -8.9600000
   6.4000000   3.3600000 -11.1200000   6.7200000   4.0600000 -11.8900000
   6.7600000   2.3600000 -11.3300000   6.9800000   3.8000000  -9.9500000
   7.9000000   3.5400000  -9.9700000   4.3800000   1.2500000 -10.1000000
   4.6600000   0.8300000 -10.9700000   4.0100000   0.2900000  -8.9900000
   2.9700000   0.5100000  -8.7400000   4.8900000   0.5500000  -7.7400000
   4.4000000   0.5300000  -6.6000000   4.1500000  -1.1500000  -9.3800000
   3.9200000  -1.7800000  -8.5200000   5.1900000  -1.3700000  -9.6500000
   3.3600000  -1.6700000 -10.5300000   2.3200000  -1.4800000 -10.2500000
   3.7000000  -1.0300000 -11.3500000   3.7900000  -3.0500000 -10.9300000
   4.6700000  -3.6300000 -10.3000000   3.2500000  -3.5400000 -11.9400000
   6.1700000   0.6600000  -7.8700000   6.5900000   0.6500000  -8.7900000
   7.1500000   0.8500000  -6.7900000   7.1900000  -0.0600000  -6.1900000
   6.8500000   2.0700000  -5.9600000   6.9000000   1.9300000  -4.7800000
   8.5200000   0.8900000  -7.4400000   9.1700000   0.6700000  -6.6000000
   8.6900000   1.9000000  -7.8000000   8.6900000  -0.1900000  -8.6000000
   8.0400000  -1.0300000  -8.3400000   9.6600000  -0.6800000  -8.5500000
   8.4800000   0.4000000  -9.9700000   9.2700000   1.1900000 -10.5500000
   7.3200000   0.2800000 -10.5400000   6.5000000   3.2100000  -6.4900000
   6.3800000   3.1200000  -7.4900000   5.9500000   4.3200000  -5.7700000
   6.5900000   4.8000000  -5.0300000   4.6900000   4.0100000  -4.8900000
   4.5900000   4.6200000  -3.7900000   5.5500000   5.4700000  -6.7700000
   4.9100000   5.0700000  -7.5500000   5.0000000   6.1900000  -6.1600000
   6.7800000   6.1600000  -7.3500000   6.3800000   6.7200000  -8.1900000
   7.3400000   5.3000000  -7.7400000   7.5800000   7.0300000  -6.3100000
   7.3400000   6.9600000  -5.0800000   8.4500000   7.8600000  -6.7500000
   3.7100000   3.2400000  -5.3700000   3.8800000   2.9400000  -6.3200000
   2.5000000   2.7600000  -4.7100000   2.0800000   3.6500000  -4.2300000
   2.8900000   1.8000000  -3.5200000   2.4000000   2.0600000  -2.4500000
   1.5700000   2.1300000  -5.7500000   2.2100000   1.4800000  -6.3500000
   0.8000000   1.5100000  -5.2900000   0.8100000   3.1400000  -6.6600000
   1.4700000   3.9000000  -7.0900000   0.3500000   2.2800000  -7.8800000
   1.1500000   1.6500000  -8.2800000  -0.5200000   1.6800000  -7.6000000
  -0.0400000   2.9400000  -8.6400000  -0.4100000   3.7300000  -6.0200000
  -1.0700000   3.0300000  -5.5200000  -0.1500000   4.4200000  -5.2100000
  -1.0400000   4.2600000  -6.7300000   3.8400000   0.8700000  -3.6000000
   4.2200000   0.7300000  -4.5200000   4.3400000   0.1100000  -2.4800000
   3.5000000  -0.3900000  -2.0000000   5.0500000   0.9700000  -1.3800000
   4.9000000   0.7400000  -0.1300000   5.3000000  -0.9500000  -3.0400000
   4.7500000  -1.3300000  -3.9000000   6.1800000  -0.5100000  -3.4900000
   5.6100000  -2.0400000  -2.0500000   4.6900000  -2.4300000  -1.6100000
   6.2100000  -1.5800000  -1.2600000   6.3700000  -3.1800000  -2.7100000
   7.5500000  -3.2900000  -2.4600000   5.7700000  -4.0300000  -3.4000000
   5.8300000   1.9800000  -1.8600000   6.0400000   2.0600000  -2.8500000
   6.3800000   3.0100000  -1.0300000   7.0400000   2.5500000  -0.3000000
   5.3400000   3.8200000  -0.2700000   5.4900000   4.0100000   0.9600000
   7.3100000   3.9100000  -1.8500000   6.6500000   4.4500000  -2.5300000
   7.9300000   3.2700000  -2.4800000   8.1900000   4.9100000  -1.1500000
   8.7800000   4.3900000  -0.4000000   7.5500000   5.6100000  -0.6200000
   9.1300000   5.6900000  -2.1000000   8.5900000   6.2800000  -2.8400000
   9.7700000   6.3800000  -1.5400000  10.1000000   4.7000000  -2.7300000
  10.8600000   4.2600000  -2.2500000   9.9700000   4.2900000  -4.0000000
   9.1500000   4.7400000  -4.8700000   9.2500000   4.5600000  -5.8600000
   8.6200000   5.5500000  -4.5900000  10.6600000   3.3500000  -4.5800000
  10.6800000   3.2300000  -5.5900000  11.2900000   2.8700000  -3.9600000
   4.1900000   4.1300000  -0.8800000   4.0900000   3.8100000  -1.8400000
   2.9900000   4.8300000  -0.2300000   3.3700000   5.7400000   0.2400000
   2.3600000   3.9500000   0.8000000   2.1100000   4.4300000   1.8900000
   2.0700000   5.2100000  -1.3800000   1.6200000   4.3900000  -1.9400000
   1.2400000   5.7900000  -0.9700000   2.5800000   5.9400000  -2.0100000
   2.2900000   2.6500000   0.4900000   2.5700000   2.4000000  -0.4400000
   1.9300000   1.6400000   1.4400000   0.9800000   2.0700000   1.7400000
   2.8700000   1.4700000   2.6200000   2.3900000   1.3200000   3.7400000
   1.6900000   0.2700000   0.7700000   0.9900000   0.2600000  -0.0600000
   2.6000000  -0.2500000   0.4600000   1.2500000  -0.3600000   1.5500000
   4.1500000   1.5200000   2.4700000   4.5100000   1.6800000   1.5400000
   5.0700000   1.4900000   3.6000000   4.8900000   0.6300000   4.2400000
   4.8900000   2.6700000   4.5100000   4.8300000   2.5400000   5.7300000
   6.5200000   1.4700000   3.0400000   6.7000000   2.3200000   2.3700000
   7.1400000   1.5700000   3.9300000   6.9800000   0.1100000   2.4900000
   6.6300000  -0.6300000   3.1900000   6.6100000  -0.1800000   1.5100000
   8.5400000  -0.1100000   2.4200000   8.8700000   0.2000000   3.4100000
   8.7200000  -1.1800000   2.3100000   9.2000000   0.7300000   1.3900000
   9.7200000   1.5400000   1.6900000   9.1400000   0.5900000   0.0800000
   8.3700000  -0.2500000  -0.4800000   8.4200000  -0.3200000  -1.4900000
   8.0300000  -0.9500000   0.1700000   9.8000000   1.3300000  -0.7400000
   9.8400000   0.9200000  -1.6600000  10.6300000   1.7400000  -0.3500000
   4.7200000   3.8700000   3.9000000   4.6100000   3.9400000   2.9000000
   4.5300000   5.0900000   4.6200000   5.2600000   5.2000000   5.4200000
   3.1400000   5.1100000   5.3300000   3.1200000   5.9200000   6.2300000
   4.8700000   6.1600000   3.6000000   4.4900000   5.9000000   2.6100000
   4.4100000   7.1200000   3.8400000   6.3700000   6.3900000   3.3600000
   6.9300000   5.4700000   3.1700000   6.8200000   6.7100000   4.3000000
   6.7300000   7.3500000   2.2200000   5.8600000   7.7100000   1.3700000
   7.9200000   7.7600000   2.1100000   2.1100000   4.3500000   4.9700000
   2.2300000   3.7700000   4.1600000   0.9200000   4.1800000   5.7300000
   0.5200000   5.1200000   6.1300000   1.2200000   3.4100000   7.0700000
   0.9000000   3.8400000   8.1900000  -0.2100000   3.5700000   4.9500000
  -0.9800000   3.3600000   5.6900000   0.1300000   2.6100000   4.5700000
  -0.7900000   4.3100000   3.7400000  -0.0100000   4.3600000   2.9800000
  -1.9700000   3.7100000   3.1200000  -2.2300000   4.2700000   2.2200000
  -1.7200000   2.7100000   2.7800000  -2.8500000   3.7100000   3.7600000
  -1.1500000   5.7600000   4.0300000  -2.1100000   5.7300000   4.5500000
  -1.3600000   6.3300000   3.1200000  -0.4900000   6.4100000   4.6100000
   1.9500000   2.3400000   7.0000000   2.2200000   2.2400000   6.0300000
   2.3100000   1.4100000   8.0200000   1.4100000   1.0900000   8.5600000
   3.3100000   1.9800000   9.0600000   3.1700000   1.8100000  10.2900000
   2.8200000   0.1600000   7.4200000   3.5800000   0.4900000   6.7100000
   3.5700000  -0.7900000   8.3800000   3.8200000  -1.7400000   7.9200000
   4.5700000  -0.4100000   8.6100000   2.9800000  -1.0500000   9.2600000
   1.6800000  -0.5800000   6.7000000   0.9200000  -0.8700000   7.4200000
   2.0700000  -1.5200000   6.3000000   1.3200000  -0.1000000   5.7900000
   4.3500000   2.7100000   8.5400000   4.3300000   2.8200000   7.5400000
   5.4400000   3.2700000   9.3600000   5.7400000   2.3900000   9.9300000
   4.8500000   4.2300000  10.4100000   5.2100000   4.2200000  11.5900000
   6.5900000   3.7800000   8.4500000   6.1600000   4.4700000   7.7200000
   7.2700000   4.4300000   9.0100000   7.3000000   2.6800000   7.7100000
   6.5800000   1.9200000   7.3900000   7.8200000   3.1100000   6.8500000
   8.3800000   2.0000000   8.5200000   8.3200000   1.8300000   9.7800000
   9.1700000   1.3100000   7.8700000   3.8600000   4.9800000   9.8800000
   3.6300000   4.8100000   8.9100000   3.1100000   6.0200000  10.5600000
   3.7900000   6.6100000  11.1700000   1.9100000   5.5000000  11.4200000
   1.3000000   6.2700000  12.1000000   2.5900000   6.9200000   9.4000000
   3.4400000   7.5600000   9.1700000   2.1800000   6.4000000   8.5400000
   1.8100000   7.5700000   9.8100000   1.5100000   4.2500000  11.3400000
   1.9700000   3.6900000  10.6300000   0.2600000   3.7100000  11.8400000
   0.3500000   2.6300000  11.7700000   0.2600000   4.0200000  12.8900000
  -1.0400000   4.2800000  11.2800000  -2.0700000   4.2200000  11.9600000
  -1.0500000   4.7700000  10.0500000  -0.1700000   4.7700000   9.5500000
  -2.2800000   5.3500000   9.4200000  -2.7300000   6.1200000  10.0500000
  -3.3300000   4.2500000   9.1800000  -4.5500000   4.5300000   9.1400000
  -1.9200000   5.9400000   8.0100000  -1.4900000   5.1500000   7.3800000
  -2.8200000   6.1600000   7.4400000  -0.9100000   7.1100000   7.8300000
  -0.8400000   7.5400000   6.8300000   0.0900000   6.7200000   8.0200000
  -1.1600000   8.3000000   8.7800000  -1.4200000   8.0800000   9.9800000
  -1.0000000   9.4700000   8.4100000  -2.9800000   2.9900000   9.1600000
  -2.0200000   2.7000000   9.2900000  -3.7700000   1.8000000   8.9800000
  -4.7800000   1.9500000   9.3500000  -3.0900000   0.6100000   9.6600000
  -1.8300000   0.6300000   9.9000000  -3.9200000   1.4900000   7.4400000
  -4.4200000   0.5300000   7.4900000  -2.6100000   1.4100000   6.6400000
  -2.6400000   1.7100000   5.6000000  -1.9000000   2.1000000   7.1100000
  -4.8700000   2.4300000   6.6700000  -4.4300000   3.4200000   6.5100000
  -5.1700000   1.9900000   5.7200000  -5.7700000   2.5900000   7.2600000
  -2.0300000  -0.0400000   6.4700000  -2.6000000  -0.6400000   5.7600000
  -1.9000000  -0.4700000   7.4700000  -1.0400000   0.2100000   6.1100000
  -3.7300000  -0.5500000   9.8500000  -4.7100000  -0.5900000   9.5900000
  -3.0800000  -1.7700000  10.2400000  -2.2100000  -1.5600000  10.8600000
  -2.6800000  -2.5800000   9.0100000  -3.4100000  -2.6900000   8.0500000
  -4.0900000  -2.6500000  11.0300000  -4.9900000  -2.7200000  10.4300000
  -4.2300000  -2.1200000  11.9800000  -3.5900000  -3.9800000  11.2600000
  -3.0100000  -4.0000000  12.0200000  -1.4600000  -3.1900000   8.9900000
  -0.9800000  -3.2300000   9.8700000  -0.6800000  -3.5500000   7.7500000
  -0.5600000  -2.7200000   7.0600000  -1.2900000  -4.7200000   6.9500000
  -1.1400000  -4.8600000   5.7100000   0.7700000  -3.8700000   8.0400000
   1.3300000  -3.1500000   8.6300000   1.3600000  -4.0700000   7.1400000
   0.8500000  -4.9600000   8.9200000   1.7700000  -5.2200000   9.0200000
  -2.1800000  -5.5000000   7.5900000  -2.4200000  -5.3000000   8.5600000
  -3.0600000  -6.4300000   6.9700000  -2.5100000  -7.2400000   6.4800000
  -3.5700000  -6.9800000   7.7700000  -4.1400000  -5.8300000   6.0100000
  -4.6200000  -6.4800000   5.0800000  -4.5100000  -4.5500000   6.2100000
  -4.0700000  -3.9900000   6.9300000  -5.5500000  -3.9100000   5.3900000
  -6.3600000  -4.6100000   5.1900000  -5.1400000  -3.6000000   3.9800000
  -5.9800000  -3.4200000   3.0800000  -6.1400000  -2.6600000   6.0600000
  -6.8900000  -2.3300000   5.3400000  -5.2300000  -1.5200000   6.1800000
  -4.4900000  -1.9300000   6.6300000  -6.9000000  -3.0500000   7.3000000
  -6.2600000  -3.4300000   8.0900000  -7.6400000  -3.8000000   7.0200000
  -7.4200000  -2.1600000   7.6400000  -3.8100000  -3.5100000   3.7000000
  -3.1700000  -3.6500000   4.4600000  -3.3300000  -3.1700000   2.3700000
  -3.7100000  -2.2000000   2.0800000  -3.7300000  -4.1700000   1.3000000
  -4.0800000  -3.8000000   0.2100000  -1.7900000  -3.1000000   2.3700000
  -1.3900000  -4.0800000   2.6500000  -1.4200000  -2.9400000   1.3600000
  -1.2000000  -2.0900000   3.4100000  -1.6900000  -2.2700000   4.3600000
   0.3500000  -2.2600000   3.6800000   0.4300000  -3.1900000   4.2500000
   0.8500000  -2.3000000   2.7100000   0.7100000  -1.4200000   4.2600000
  -1.4200000  -0.6800000   2.9800000  -2.4900000  -0.5000000   2.8900000
  -0.8200000  -0.5200000   2.0800000  -1.0000000  -0.0400000   3.7500000
  -3.7000000  -5.4500000   1.6200000  -3.4700000  -5.7100000   2.5700000
  -3.7900000  -6.4900000   0.6300000  -3.0800000  -6.3800000  -0.2000000
  -5.1300000  -6.6000000  -0.2200000  -5.1100000  -7.0700000  -1.3600000
  -3.3700000  -7.8500000   1.3200000  -3.2800000  -8.5800000   0.5100000
  -4.1800000  -8.1700000   1.9700000  -2.0300000  -7.8500000   2.0500000
  -1.9800000  -8.9100000   2.3100000  -2.1400000  -7.2100000   2.9200000
  -0.8200000  -7.4200000   1.2200000   0.2000000  -7.1800000   1.9100000
  -0.8200000  -7.5500000  -0.0300000  -6.2900000  -6.1200000   0.3100000
  -6.3300000  -5.8500000   1.2900000  -7.5600000  -5.8500000  -0.3600000
  -7.8400000  -6.7400000  -0.9400000  -7.5900000  -4.6400000  -1.3100000
  -7.9500000  -4.7600000  -2.4900000  -8.6000000  -5.7000000   0.7200000
  -8.3700000  -6.5000000   1.4200000  -8.5700000  -4.7000000   1.1500000
 -10.0900000  -5.9200000   0.1500000 -10.1700000  -6.9400000  -0.2400000
 -10.2600000  -5.1800000  -0.6300000 -11.1600000  -5.8500000   1.2300000
 -10.8400000  -5.4600000   2.3600000 -12.3400000  -6.1800000   0.9700000
  -7.0600000  -3.4900000  -0.8100000  -6.5800000  -3.6200000   0.0700000
  -6.7900000  -2.1700000  -1.5400000  -7.7600000  -1.8300000  -1.9000000
  -5.9500000  -2.4600000  -2.7900000  -6.2200000  -1.9300000  -3.8800000
  -6.1700000  -1.0900000  -0.6400000  -5.1200000  -1.3400000  -0.4500000
  -6.9100000  -0.9500000   0.7000000  -7.8200000  -0.3600000   0.6100000
  -7.2200000  -1.8900000   1.1600000  -6.3000000   0.2500000  -1.4100000
  -7.3100000   0.3800000  -1.7900000  -5.9800000   1.1500000  -0.8900000
  -5.6600000   0.2000000  -2.2900000  -6.0600000  -0.2200000   1.7400000
  -5.0900000  -0.7200000   1.8000000  -5.8600000   0.8200000   1.4800000
  -6.5400000  -0.3700000   2.7100000  -4.9200000  -3.2700000  -2.5900000
  -4.6800000  -3.4700000  -1.6300000  -3.9000000  -3.5700000  -3.6000000
  -3.5400000  -2.6000000  -3.9600000  -4.5400000  -4.4100000  -4.7700000
  -4.1100000  -4.2600000  -5.9000000  -2.7700000  -4.3000000  -2.8300000
  -2.4000000  -3.6300000  -2.0500000  -3.2100000  -5.1600000  -2.3200000
  -1.6500000  -4.8300000  -3.7500000  -1.1600000  -3.9700000  -4.2100000
  -2.1800000  -5.4900000  -4.4400000  -0.6800000  -5.6400000  -2.9600000
  -0.0400000  -6.1300000  -3.6900000  -1.1600000  -6.5600000  -2.6300000
   0.2700000  -4.9600000  -1.9400000   0.7800000  -4.2000000  -2.5200000
  -0.3400000  -4.4600000  -1.1800000   1.1200000  -5.9400000  -1.2600000
   1.5500000  -6.5000000  -1.9700000   0.6500000  -6.5100000  -0.5700000
   1.9000000  -5.5400000  -0.7700000  -5.5600000  -5.2300000  -4.4700000
  -5.8000000  -5.3000000  -3.4900000  -6.2400000  -6.1800000  -5.4100000
  -5.4700000  -6.5800000  -6.0700000  -7.3100000  -5.5200000  -6.2300000
  -7.6100000  -5.9600000  -7.3600000  -6.8400000  -7.2600000  -4.5200000
  -6.1700000  -7.6000000  -3.7300000  -7.6800000  -6.8100000  -3.9900000
  -7.4000000  -8.3700000  -5.4000000  -7.0700000  -8.3900000  -6.4400000
  -8.4600000  -8.1300000  -5.4400000  -7.1000000  -9.7400000  -4.8100000
  -7.9000000 -10.6500000  -4.9900000  -5.9900000  -9.8800000  -4.2400000
  -7.9300000  -4.4400000  -5.7200000  -7.6200000  -4.1600000  -4.8000000
  -8.7900000  -3.5400000  -6.3700000  -9.5000000  -4.1200000  -6.9700000
  -7.9900000  -2.7000000  -7.3900000  -8.5700000  -2.3500000  -8.4400000
  -9.5300000  -2.6300000  -5.3700000  -8.8200000  -2.2800000  -4.6100000
 -10.1700000  -1.8800000  -5.8300000 -10.5300000  -3.4700000  -4.5600000
 -11.2800000  -3.7600000  -5.3000000 -10.0400000  -4.3900000  -4.2400000
 -11.2000000  -2.5900000  -3.5200000 -11.7500000  -1.7500000  -3.9400000
 -10.5700000  -2.1000000  -2.7800000 -12.0100000  -3.6100000  -2.6700000
 -11.3700000  -4.4600000  -2.4000000 -12.2700000  -3.2000000  -1.6900000
 -13.3200000  -4.0700000  -3.1900000 -13.9100000  -3.3100000  -3.5000000
 -13.2400000  -4.7800000  -3.9100000 -13.8000000  -4.5600000  -2.4500000
  -6.7800000  -2.3500000  -7.0400000  -6.5200000  -2.5500000  -6.0900000
  -5.9200000  -1.4200000  -7.7100000  -6.4900000  -0.6600000  -8.2400000
  -4.9500000  -2.0400000  -8.7700000  -4.5500000  -1.2600000  -9.6400000
  -5.1200000  -0.6500000  -6.6900000  -4.5900000  -1.2700000  -5.9700000
  -4.3800000  -0.0800000  -7.2600000  -5.9500000   0.4200000  -5.9300000
  -6.8300000   0.1500000  -5.3500000  -4.9000000   1.1500000  -5.0000000
  -4.4600000   0.4300000  -4.3100000  -4.0800000   1.5400000  -5.6000000
  -5.3700000   1.8800000  -4.3400000  -6.5200000   1.5400000  -6.8500000
  -7.4500000   1.2200000  -7.3100000  -6.7900000   2.3600000  -6.1800000
  -5.7200000   1.7700000  -7.5600000  -4.6800000  -3.3900000  -8.7800000
  -5.0100000  -3.9400000  -8.0000000  -3.7500000  -4.0900000  -9.6700000
  -3.1100000  -3.3800000 -10.1900000  -4.4900000  -4.7900000 -10.7300000
  -5.1800000  -5.7900000 -10.5400000  -2.7900000  -4.9700000  -8.9300000
  -3.4400000  -5.5800000  -8.3000000  -2.1800000  -5.5800000  -9.5900000
  -1.9800000  -4.2800000  -8.0000000  -2.5200000  -4.0100000  -7.2500000
  -4.4000000  -4.3800000 -11.9200000  -0.9170000   1.1650000 -12.7420000
  -0.7810000   0.0230000 -11.9450000  -0.5770000   0.1610000 -10.5600000
  -1.6550000   0.1260000  -9.7150000  -1.4760000   0.2620000  -8.3430000
  -0.2410000   0.4850000  -7.7970000  -0.0340000   0.6070000  -6.3160000
   0.8840000  -0.0020000  -5.7850000  -0.9270000   1.4460000  -5.4410000
  -1.0450000   2.7880000  -5.6920000  -1.8420000   3.5400000  -4.8660000
  -2.5890000   2.9300000  -3.9120000  -2.5450000   1.5350000  -3.6880000
  -1.6560000   0.8190000  -4.4710000   0.8550000   0.5400000  -8.6770000
   2.1000000   0.6900000  -8.0720000   0.7090000   0.3720000 -10.0100000
  -1.0224932   2.0508324 -12.0984379  -0.0258680   1.2771798 -13.3770586
  -1.8095542   1.0647618 -13.3770586  -2.6669474  -0.0103589 -10.1241071
  -2.3498545   0.1884448  -7.6789458  -0.5132159   3.2516160  -6.5359584
  -1.8750551   4.6338779  -4.9770788  -3.2548171   3.5447915  -3.2885267
  -3.1806576   1.0465224  -2.9347875  -1.5358039  -0.2626255  -4.3108775
   2.9180021   0.7365631  -8.6277018   1.5904814   0.3993521 -10.6674515
