
  542  0.0000000e+00
  -0.7980000 -11.7430000   2.5300000  -0.4020000 -10.8610000   2.2370000
  -0.4180000 -12.5260000   2.0180000  -0.6350000 -11.8280000   3.5230000
  -2.3050000 -11.6490000   2.2910000  -2.6950000 -12.5710000   2.7220000
  -2.6430000 -11.9210000   0.8720000  -3.3860000 -12.8440000   0.6970000
  -3.1520000 -10.4160000   2.9420000  -4.2070000 -10.6680000   2.8310000
  -2.9370000  -9.5130000   2.3700000  -2.8750000 -10.1150000   4.4660000
  -3.2880000  -9.1200000   4.6350000  -1.8110000 -10.0680000   4.6970000
  -3.4420000 -11.2210000   5.3500000  -4.4920000 -11.3480000   5.0860000
  -2.9120000 -12.1420000   5.1070000  -3.1850000 -10.9000000   6.7730000
  -2.6760000 -10.0510000   6.9720000  -3.5330000 -11.6000000   7.8550000
  -4.2370000 -12.6480000   7.7780000  -4.6160000 -12.9110000   6.8800000
  -4.5790000 -13.0830000   8.6220000  -3.1370000 -11.2520000   9.0330000
  -2.7940000 -10.3020000   9.0330000  -3.6060000 -11.6520000   9.8330000
  -2.3120000 -11.0280000  -0.1180000  -1.9060000 -10.1870000   0.2670000
  -2.7200000 -11.0800000  -1.5110000  -3.7120000 -11.5300000  -1.4910000
  -1.8640000 -11.9860000  -2.3880000  -2.3220000 -12.2740000  -3.4850000
  -3.0900000  -9.7770000  -2.1560000  -2.1730000  -9.1910000  -2.0990000
  -3.2530000  -9.8250000  -3.2330000  -4.2120000  -8.9900000  -1.5540000
  -4.2310000  -9.0240000  -0.4640000  -3.9220000  -7.5300000  -1.9280000
  -4.1170000  -7.2560000  -2.9650000  -4.4900000  -6.8800000  -1.2630000
  -2.9250000  -7.2440000  -1.5950000  -5.5710000  -9.3730000  -2.1300000
  -5.5170000  -9.3660000  -3.2190000  -6.2890000  -8.6240000  -1.7940000
  -5.8310000 -10.3790000  -1.8040000  -0.7200000 -12.3980000  -1.9500000
  -0.5140000 -12.2020000  -0.9810000   0.1980000 -13.2170000  -2.7510000
   0.5510000 -12.5900000  -3.5700000  -0.3960000 -14.5100000  -3.2550000
  -1.0510000 -15.2480000  -2.5410000   1.4760000 -13.5480000  -2.0200000
   1.3910000 -14.4350000  -1.3920000   2.1730000 -13.8770000  -2.7900000
   2.1890000 -12.5700000  -1.1410000   3.2480000 -12.8130000  -1.0480000
   2.1070000 -11.6360000  -1.6970000   1.5250000 -12.4020000   0.2390000
   0.4280000 -12.9650000   0.5470000   2.1350000 -11.6940000   1.0470000
  -0.2250000 -14.8500000  -4.5170000   0.3010000 -14.1860000  -5.0660000
  -0.7760000 -16.0570000  -5.0690000  -0.5210000 -16.9480000  -4.4950000
  -0.2670000 -16.1770000  -6.0260000  -2.3220000 -16.0390000  -5.4800000
  -2.9160000 -16.9090000  -6.1560000  -2.9240000 -14.9320000  -5.0800000
  -2.3170000 -14.5000000  -4.3990000  -4.3460000 -14.5170000  -5.2810000
  -4.8490000 -15.3420000  -5.7870000  -4.5540000 -13.3690000  -6.3250000
  -5.6830000 -13.2720000  -6.8590000  -5.0000000 -14.3870000  -3.8820000
  -4.5730000 -13.4650000  -3.4860000  -4.6690000 -15.4610000  -2.8560000
  -3.5810000 -15.4010000  -2.8070000  -4.8720000 -16.4720000  -3.2080000
  -6.5180000 -14.2560000  -4.0450000  -6.9730000 -14.2470000  -3.0550000
  -6.8240000 -13.4070000  -4.6550000  -6.9900000 -15.1280000  -4.4970000
  -5.1950000 -15.2410000  -1.4580000  -6.2490000 -15.5140000  -1.4060000
  -4.6500000 -15.8710000  -0.7560000  -5.1170000 -14.2140000  -1.1020000
  -3.4670000 -12.6150000  -6.5770000  -2.6650000 -12.9020000  -6.0350000
  -3.1630000 -11.7780000  -7.7520000  -3.9580000 -11.7930000  -8.4980000
  -1.9270000 -12.3160000  -8.4830000  -1.2280000 -13.2650000  -8.0200000
  -2.8890000 -10.3430000  -7.2820000  -2.8340000  -9.7010000  -8.1610000
  -1.9310000 -10.2620000  -6.7670000  -3.9810000  -9.7190000  -6.3910000
  -4.1740000 -10.4350000  -5.5920000  -3.5260000  -8.4240000  -5.6870000
  -4.3000000  -8.1250000  -4.9790000  -2.6120000  -8.6640000  -5.1440000
  -3.3220000  -7.5780000  -6.3430000  -5.3150000  -9.4950000  -7.0990000
  -5.6520000 -10.3510000  -7.6830000  -5.2570000  -8.5640000  -7.6630000
  -6.1390000  -9.3190000  -6.4070000  -1.6230000 -11.7110000  -9.6340000
  -2.1750000 -10.9500000 -10.0040000  -0.3210000 -11.8680000 -10.2760000
   0.1050000 -12.8530000 -10.0870000   0.6110000 -10.8210000  -9.6970000
   0.1850000  -9.7030000  -9.3490000  -0.4240000 -11.6020000 -11.7880000
   0.4800000 -11.9500000 -12.2880000  -1.1850000 -12.2460000 -12.2310000
  -0.6820000 -10.1280000 -12.1710000  -1.8500000  -9.7090000 -12.3490000
   0.2750000  -9.3530000 -12.5010000   1.9200000 -11.1440000  -9.6230000
   2.1100000 -12.1260000  -9.7650000   3.0140000 -10.3270000  -9.0500000
   2.9480000 -10.3030000  -7.9620000   2.9570000  -8.8500000  -9.4140000
   3.3080000  -8.0040000  -8.5600000   4.3390000 -10.9490000  -9.3670000
   5.1490000 -10.3120000  -9.0100000   4.4530000 -10.9600000 -10.4510000
   4.5780000 -12.3800000  -8.9270000   4.0080000 -12.8820000  -7.9690000
   5.5850000 -12.9780000  -9.4550000   2.5000000  -8.5610000 -10.6660000
   2.0580000  -9.2570000 -11.2490000   2.5000000  -7.1510000 -11.1970000
   3.4520000  -6.6840000 -10.9430000   1.3950000  -6.3220000 -10.5570000
   1.5330000  -5.2010000 -10.1170000   2.6600000  -7.1580000 -12.7180000
   3.2350000  -8.0470000 -12.9750000   3.1660000  -6.2490000 -13.0440000
   1.3250000  -7.1540000 -13.3100000   0.7700000  -7.8740000 -13.0040000
   0.1890000  -6.8900000 -10.4890000   0.1180000  -7.8370000 -10.8340000
  -1.0310000  -6.3920000  -9.8050000  -1.1870000  -5.3950000 -10.2160000
  -0.8190000  -6.3120000  -8.3010000  -1.2030000  -5.3070000  -7.6790000
  -2.2710000  -7.2080000 -10.1620000  -2.0390000  -8.2100000  -9.8000000
  -2.3570000  -7.3080000 -11.6220000  -2.3500000  -8.2420000 -11.8460000
  -3.5410000  -6.6970000  -9.5510000  -3.6620000  -7.0850000  -8.5400000
  -3.5720000  -5.6080000  -9.5970000  -4.3930000  -7.0700000 -10.1190000
  -0.1610000  -7.3180000  -7.7770000  -0.0310000  -8.1490000  -8.3350000
   0.2220000  -7.3470000  -6.3940000  -0.6970000  -7.2380000  -5.8180000
   1.1090000  -6.1490000  -6.0460000   0.8860000  -5.4620000  -5.0280000
   0.9220000  -8.6770000  -6.1180000   0.2890000  -9.5500000  -6.2820000
   1.8540000  -8.7570000  -6.6770000   1.2550000  -8.7540000  -4.6190000
   2.5380000  -8.3460000  -4.0500000   3.3520000  -8.0130000  -4.6770000
   0.2060000  -9.1940000  -3.7110000  -0.7100000  -9.5480000  -4.1600000
   2.7770000  -8.3870000  -2.6830000   3.7310000  -8.0600000  -2.2970000
   0.5670000  -9.3430000  -2.3330000  -0.1600000  -9.7720000  -1.6600000
   1.8070000  -8.8910000  -1.8060000   2.1480000  -8.9730000  -0.4980000
   2.8600000  -8.3780000  -0.2530000   2.0130000  -5.6960000  -6.9340000
   2.1020000  -6.1480000  -7.8330000   2.8990000  -4.5220000  -6.5640000
   3.2480000  -4.5500000  -5.5320000   2.3130000  -3.1540000  -6.8290000
   2.7150000  -2.1900000  -6.2130000   4.1810000  -4.6470000  -7.4450000
   3.7880000  -4.6760000  -8.4620000   4.7480000  -3.7220000  -7.3490000
   5.0440000  -5.8420000  -6.9940000   4.4620000  -6.7220000  -6.7180000
   5.6280000  -5.5330000  -6.1270000   6.0410000  -6.3790000  -8.0920000
   5.5090000  -6.4070000  -9.0430000   6.8540000  -5.6640000  -8.2090000
   6.5180000  -7.7160000  -7.5890000   6.8350000  -7.5070000  -6.5670000
   5.6620000  -8.3880000  -7.5410000   7.6130000  -8.2610000  -8.4210000
   7.8990000  -9.1240000  -7.9810000   8.3950000  -7.6210000  -8.3930000
   7.3450000  -8.3440000  -9.3910000   1.3470000  -3.0490000  -7.6870000
   1.0650000  -3.9080000  -8.1380000   0.4970000  -1.9010000  -7.9750000
   1.0200000  -0.9610000  -8.1480000  -0.3880000  -1.5810000  -6.8580000
  -0.4170000  -0.4860000  -6.2980000  -0.2080000  -2.0260000  -9.2400000
  -0.8140000  -2.9310000  -9.2740000  -0.8460000  -1.1490000  -9.3510000
   0.4830000  -2.0110000 -10.0830000  -1.1280000  -2.5930000  -6.3900000
  -1.1580000  -3.5010000  -6.8320000  -2.0450000  -2.4450000  -5.2340000
  -2.6340000  -1.5320000  -5.3170000  -1.1860000  -2.2360000  -3.9160000
  -1.5190000  -1.2630000  -3.2230000  -3.0380000  -3.6310000  -5.2110000
  -2.3620000  -4.4680000  -5.3880000  -4.0250000  -3.4660000  -6.4040000
  -3.5080000  -3.2410000  -7.3370000  -4.6270000  -2.5800000  -6.2020000
  -3.8760000  -3.7530000  -3.8810000  -3.3480000  -4.0430000  -2.9730000
  -4.7530000  -4.3800000  -4.0420000  -4.2660000  -2.7440000  -3.7440000
  -4.9840000  -4.5950000  -6.6790000  -4.4540000  -5.4690000  -7.0560000
  -5.6740000  -4.2670000  -7.4570000  -5.5740000  -4.9690000  -5.8420000
  -0.0700000  -2.9710000  -3.6920000   0.1020000  -3.7840000  -4.2650000
   0.7290000  -2.8740000  -2.4670000   0.0630000  -2.9370000  -1.6070000
   1.3590000  -1.4450000  -2.3590000   1.1830000  -0.8510000  -1.3280000
   1.8480000  -3.9200000  -2.3710000   2.4550000  -3.7100000  -1.4910000
   2.4690000  -3.7100000  -3.2420000   1.1300000  -5.1410000  -2.3060000
   1.1040000  -5.5130000  -3.1910000   1.8880000  -0.8820000  -3.4910000
   1.8260000  -1.5180000  -4.2730000   2.6140000   0.4660000  -3.5160000
   3.2980000   0.5230000  -2.6700000   1.6130000   1.6350000  -3.4830000
   1.9550000   2.6390000  -2.9520000   3.5560000   0.5740000  -4.7060000
   4.3540000  -0.1680000  -4.6660000   3.7320000   1.6490000  -4.6680000
   3.0110000   0.4190000  -5.9490000   2.8930000  -0.5210000  -6.1030000
   0.3650000   1.4710000  -4.0120000   0.2160000   0.6390000  -4.5650000
  -0.6470000   2.4930000  -3.8820000  -0.1950000   3.4510000  -4.1370000
  -1.1080000   2.6050000  -2.3770000  -1.2490000   3.7720000  -1.8610000
  -1.8220000   2.1780000  -4.7990000  -1.4280000   2.1570000  -5.8150000
  -2.1500000   1.1610000  -4.5810000  -3.0070000   3.0800000  -4.7410000
  -3.0120000   4.2510000  -5.5940000  -2.1880000   4.4230000  -6.2710000
  -4.1300000   2.7710000  -3.9670000  -4.1210000   1.8310000  -3.4350000
  -4.2270000   4.9740000  -5.7320000  -4.2520000   5.8180000  -6.4060000
  -5.3380000   3.4750000  -4.0440000  -6.2480000   3.0990000  -3.6000000
  -5.3740000   4.6140000  -4.8970000  -6.2640000   5.2200000  -4.8190000
  -1.3690000   1.4670000  -1.6790000  -1.2410000   0.5510000  -2.0840000
  -1.8230000   1.6270000  -0.3180000  -2.6400000   2.3390000  -0.2000000
  -0.6880000   2.2150000   0.5440000  -0.9020000   3.0750000   1.4140000
  -2.3400000   0.2740000   0.1100000  -1.7450000  -0.5410000  -0.3010000
  -2.4720000   0.1530000   1.1850000  -3.7150000   0.0590000  -0.3920000
  -4.1040000  -0.7260000  -1.4360000  -3.4340000  -1.3340000  -2.0260000
  -4.8550000   0.6930000   0.0780000  -5.4830000  -0.6440000  -1.5560000
  -6.0100000  -1.0970000  -2.2880000  -5.9470000   0.4010000  -0.7390000
  -5.1660000   1.6200000   1.1250000  -4.3980000   1.9630000   1.8020000
  -7.1810000   1.0370000  -0.6960000  -7.9990000   0.7330000  -1.3310000
  -6.4200000   2.2010000   1.2610000  -6.5260000   2.9380000   2.0440000
  -7.4280000   1.8780000   0.3640000  -8.4050000   2.3060000   0.5380000
   0.5260000   1.9450000   0.2120000   0.7050000   1.2870000  -0.5340000
   1.6740000   2.5860000   0.8440000   1.6790000   2.3920000   1.9170000
   1.6740000   4.1190000   0.6360000   2.1560000   4.9170000   1.4000000
   2.9320000   1.8940000   0.2130000   2.9220000   0.8060000   0.2680000
   2.9030000   2.2200000  -0.8270000   4.2840000   2.3410000   0.7000000
   4.5710000   1.9370000   1.6710000   4.3110000   3.4210000   0.8440000
   5.4920000   2.0660000  -0.2090000   5.3480000   1.4320000  -1.2940000
   6.6170000   2.4210000   0.2100000   1.1960000   4.6280000  -0.5140000
   0.9000000   3.9460000  -1.1970000   1.3040000   6.0160000  -0.9670000
   2.2330000   6.4390000  -0.5850000   0.1560000   6.8290000  -0.3180000
   0.4070000   7.8420000   0.3370000   1.3340000   6.1440000  -2.4720000
   0.5150000   5.6280000  -2.9740000   1.1940000   7.1670000  -2.8200000
   2.7740000   5.6850000  -2.8830000   2.9670000   4.7570000  -2.3430000
   3.4460000   6.5150000  -2.6680000   2.8690000   5.2970000  -4.3840000
   2.8140000   6.2490000  -4.9120000   1.9880000   4.6740000  -4.5390000
   4.2400000   4.6320000  -4.7160000   4.3810000   3.6680000  -4.2280000
   5.0410000   5.3100000  -4.4220000   4.4100000   4.3910000  -6.1350000
   3.8390000   3.5980000  -6.3910000   5.3790000   4.1560000  -6.2940000
   4.2040000   5.2350000  -6.6510000  -1.0870000   6.2470000  -0.2780000
  -1.2300000   5.4670000  -0.9040000  -2.1740000   6.7160000   0.6410000
  -2.5710000   7.6800000   0.3220000  -1.6530000   6.9370000   2.0760000
  -1.7170000   8.0180000   2.6400000  -3.3610000   5.7010000   0.5790000
  -3.9260000   5.7570000   1.5090000  -2.9860000   4.6850000   0.4580000
  -4.3920000   6.1130000  -0.4620000  -3.8920000   5.8690000  -1.3990000
  -4.5870000   7.1810000  -0.3630000  -5.6590000   5.2570000  -0.3910000
  -6.0760000   5.2030000  -1.3960000  -5.4000000   4.2030000  -0.2870000
  -6.6770000   5.5980000   0.6380000  -6.3880000   6.0350000   1.5010000
  -7.9740000   5.4000000   0.5810000  -8.6110000   4.9570000  -0.3760000
  -9.6190000   4.9510000  -0.3200000  -8.1010000   4.8760000  -1.2440000
  -8.6490000   5.4770000   1.6840000  -8.1700000   5.4880000   2.5730000
  -9.6230000   5.2080000   1.6760000  -1.1530000   5.8570000   2.6870000
  -0.9910000   5.0160000   2.1520000  -0.6100000   5.8550000   4.0150000
  -1.4180000   6.1640000   4.6780000   0.4550000   6.8880000   4.3100000
   0.5500000   7.4080000   5.4570000  -0.2150000   4.4220000   4.3450000
   0.4350000   4.0290000   3.5630000  -1.4560000   3.5040000   4.5520000
  -2.1840000   3.7750000   3.7860000  -1.8130000   3.7210000   5.5590000
   0.6930000   4.2920000   5.5300000   0.6030000   3.2880000   5.9430000
   0.3450000   4.8760000   6.3820000   1.7230000   4.5080000   5.2440000
  -1.3120000   1.9720000   4.5350000  -2.2320000   1.4220000   4.3390000
  -0.9770000   1.5070000   5.4620000  -0.5360000   1.7600000   3.7980000
   1.3230000   7.1190000   3.3100000   1.1530000   6.6070000   2.4550000
   2.4330000   8.0800000   3.4050000   2.8460000   8.0640000   4.4130000
   2.0640000   9.5030000   3.1130000   2.7600000  10.3330000   3.7810000
   3.5750000   7.6130000   2.5470000   3.3380000   7.3150000   1.5260000
   4.4000000   8.3240000   2.5720000   4.2290000   6.4860000   3.3400000
   3.4340000   5.8050000   3.6430000   4.6680000   6.9540000   4.2210000
   5.2920000   5.6580000   2.6350000   5.6370000   4.9110000   3.3500000
   4.9550000   5.1530000   1.7300000   6.4710000   6.5550000   2.2370000
   6.1360000   7.4780000   1.7640000   7.0360000   6.7530000   3.1470000
   7.4060000   5.9470000   1.3480000   7.7560000   5.0720000   1.7100000
   6.9110000   5.7930000   0.4810000   8.1900000   6.5620000   1.1830000
   1.0990000   9.8260000   2.2490000   0.6460000   9.0030000   1.8780000
   0.5840000  11.1390000   1.8700000   1.3960000  11.8240000   1.6260000
  -0.2910000  11.7160000   3.0260000  -0.3260000  12.9020000   3.2190000
  -0.2330000  11.0730000   0.5470000   0.4830000  10.9100000  -0.2600000
  -0.7850000  11.9890000   0.3390000  -1.1910000  10.0820000   0.5080000
  -0.6720000   9.2790000   0.4180000  -0.9960000  10.8720000   3.8440000
  -1.0490000   9.8860000   3.6280000  -1.7810000  11.2750000   4.9510000
  -2.1600000  12.2720000   4.7270000  -1.0230000  11.5800000   6.2180000
  -1.5460000  12.2840000   7.0830000  -2.9540000  10.2740000   5.3090000
  -2.6050000   9.2410000   5.3220000  -3.3380000  10.6300000   6.2640000
  -4.1250000  10.2210000   4.3170000  -4.3370000  11.1620000   3.5660000
  -4.8430000   9.1970000   4.4640000   0.2240000  11.1990000   6.3080000
   0.5400000  11.0150000   5.3670000   1.1270000  11.5810000   7.3510000
   0.7850000  11.2040000   8.3150000   1.3580000  13.1160000   7.4800000
   1.7460000  13.7930000   6.5060000   2.5490000  10.9640000   7.0310000
   2.9460000  11.3340000   6.0850000   2.3890000   9.4250000   6.9410000
   1.8870000   9.2970000   5.9820000   1.7960000   8.9660000   7.7320000
   3.4680000  11.3610000   8.2460000   2.9740000  11.2040000   9.2040000
   3.7530000  12.3830000   7.9940000   4.4390000  10.8670000   8.2210000
   3.7480000   8.7470000   6.8050000   3.5770000   7.7150000   6.4980000
   4.2810000   9.2250000   5.9830000   4.2760000   8.8200000   7.7560000
   1.0260000  13.7060000   8.6100000   0.8900000  13.0510000   9.3670000
   1.4190000  15.1100000   9.0350000   1.6130000  15.7910000   8.2060000
   2.7020000  15.1430000   9.8860000   2.9020000  14.1980000  10.6410000
   0.2910000  15.8170000   9.8040000   0.6820000  16.7600000  10.1870000
   0.1320000  15.1410000  10.6430000  -0.9750000  16.0040000   8.9690000
  -1.2430000  15.0980000   8.4250000  -0.7090000  16.7700000   8.2410000
  -2.0740000  16.5610000   9.8350000  -1.6980000  17.3720000  10.4580000
  -2.8760000  17.0160000   9.2530000  -2.6460000  15.4270000  10.7220000
  -2.7600000  14.5570000  10.0750000  -1.9000000  15.1250000  11.4560000
  -4.0140000  15.7050000  11.2410000  -4.0190000  16.4220000  11.9530000
  -4.2770000  14.8860000  11.7700000  -4.7090000  15.9020000  10.5360000
   3.4330000  16.2490000   9.8990000   3.3450000  17.0180000   9.2500000
   4.5670000  16.3610000  10.8520000   5.3040000  15.6170000  10.5500000
   4.2870000  16.1350000  12.3310000   5.1760000  15.7780000  13.1100000
   5.3220000  17.6470000  10.5510000   4.5660000  18.4070000  10.7500000
   6.2270000  17.6990000  11.1560000   5.8680000  17.8200000   9.1460000
   5.0640000  17.8270000   8.4090000   6.4850000  16.9750000   8.8410000
   6.5930000  19.1520000   9.0170000   7.0800000  19.6510000  10.0310000
   6.3200000  19.8370000   8.0090000   3.0340000  16.4020000  12.6240000
   2.4760000  16.8330000  11.9010000   2.5150000  16.4700000  13.9530000
   1.6160000  17.0870000  13.9800000   3.2560000  16.8760000  14.6410000
   2.0960000  15.0870000  14.4180000   1.6820000  14.8300000  15.5890000
   2.2230000  14.0510000  13.5780000   2.3610000  14.2570000  12.5990000
   2.1410000  12.6230000  13.9770000   1.2590000  12.4930000  14.6040000
   3.4160000  12.1920000  14.6770000   3.3580000  11.1620000  15.3690000
   1.9640000  11.6970000  12.7010000   2.7900000  11.9140000  12.0230000
   2.0590000  10.6330000  12.9160000   0.6240000  11.9700000  11.9690000
  -0.3430000  12.2880000  12.6380000   0.5470000  11.6560000  10.7370000
   4.5660000  12.8060000  14.3150000   4.5510000  13.5040000  13.5850000
   5.9200000  12.3190000  14.7860000   5.9030000  11.2430000  14.6160000
   6.1140000  12.4210000  16.3190000   6.6250000  11.4070000  16.9070000
   7.0400000  13.0000000  13.9560000   6.8690000  14.0650000  13.7930000
   8.0200000  12.9550000  14.4310000   7.0980000  12.3370000  12.5710000
   8.0990000  11.3980000  12.2140000   8.9130000  11.1790000  12.8900000
   6.1750000  12.6640000  11.6160000   5.3450000  13.3240000  11.8190000
   8.2170000  10.9540000  10.9010000   9.0130000  10.3000000  10.5770000
   6.2610000  12.2020000  10.2960000   5.4660000  12.4980000   9.6280000
   7.2270000  11.2720000   9.9680000   7.1730000  10.7260000   9.0380000
   5.6520000  13.3730000  16.9220000  -6.0040000  -3.5600000   1.0190000
  -5.1440000  -3.5410000  -0.1240000  -3.7990000  -3.5190000   0.0150000
  -3.1820000  -3.0990000   1.1870000  -1.8120000  -3.0760000   1.2650000
  -1.0360000  -3.4580000   0.1950000   0.4510000  -3.4320000   0.2260000
   1.0290000  -4.2060000  -0.4940000   1.2710000  -2.4920000   1.0160000
   2.6550000  -2.5020000   0.8470000   3.4550000  -1.6270000   1.5460000
   2.9000000  -0.7260000   2.4320000   1.5290000  -0.7010000   2.5970000
   0.7290000  -1.5750000   1.8830000  -1.6540000  -3.8970000  -0.9680000
  -0.8770000  -4.2980000  -2.0100000  -3.0330000  -3.9150000  -1.0530000
  -5.3960000  -3.5466000   1.9356000  -6.6585000  -2.6761000   1.0002000
  -6.6188000  -4.4719000   1.0002000  -3.7894000  -2.7861000   2.0491000
  -1.3274000  -2.7475000   2.1963000   3.1125000  -3.2170000   0.1474000
   4.5448000  -1.6459000   1.3974000   3.5417000  -0.0362000   2.9998000
   1.0728000   0.0146000   3.2968000  -0.3626000  -1.5348000   2.0122000
  -1.2980000  -4.6146000  -2.8483000  -3.5196000  -4.2484000  -1.9815000
