
  431  0.0000000e+00
   4.5620000 -16.4240000  16.1070000   4.0430000 -15.5610000  16.1900000
   4.9560000 -16.7430000  16.9810000   5.2760000 -16.1340000  15.4550000
   3.7760000 -17.5010000  15.6220000   2.8430000 -17.6750000  16.1580000
   4.4190000 -18.3690000  15.7670000   3.4150000 -17.3680000  14.1930000
   3.8870000 -16.5040000  13.5020000   2.7840000 -18.3990000  13.6790000
   2.4460000 -19.0820000  14.3420000   2.3360000 -18.5250000  12.2990000
   3.2590000 -18.5680000  11.7220000   1.5280000 -17.3100000  11.8500000
   1.9360000 -16.6910000  10.8890000   1.6120000 -19.8080000  12.1750000
   2.2540000 -20.6540000  12.4180000   0.7590000 -19.7190000  12.8480000
   1.2050000 -19.9300000  11.1710000   0.4680000 -17.0150000  12.6250000
   0.2820000 -17.5510000  13.4610000  -0.4450000 -16.0230000  12.2490000
  -0.8100000 -16.2330000  11.2440000   0.0860000 -14.5880000  12.3090000
  -0.2030000 -13.7100000  11.4670000  -1.6110000 -16.2240000  13.2900000
  -2.4140000 -15.5820000  12.9280000  -1.2550000 -15.7630000  14.2110000
  -2.0190000 -17.2270000  13.4150000   0.9760000 -14.2130000  13.2530000
   1.1080000 -14.8130000  14.0550000   1.6370000 -12.9150000  13.1920000
   0.8300000 -12.1820000  13.1910000   2.5170000 -12.7740000  11.9090000
   2.7630000 -11.7280000  11.2770000   2.5030000 -12.6170000  14.4500000
   1.8970000 -12.5550000  15.3540000   2.9860000 -11.6460000  14.3490000
   3.3070000 -13.3390000  14.5940000   3.2000000 -13.8840000  11.5170000
   3.1560000 -14.6990000  12.1120000   3.9340000 -13.9660000  10.2120000
   4.6350000 -13.1320000  10.1820000   2.9990000 -13.6640000   9.0100000
   3.1410000 -12.6870000   8.2880000   4.7890000 -15.2650000   9.9560000
   4.0460000 -16.0550000  10.0720000   5.5220000 -15.2080000   8.6010000
   6.0960000 -16.1320000   8.5290000   4.9580000 -15.0770000   7.6770000
   6.2800000 -14.4250000   8.5970000   5.8430000 -15.4670000  11.0470000
   5.4680000 -15.2240000  12.0410000   6.1680000 -16.4980000  10.9070000
   6.6720000 -14.7700000  10.9200000   1.9300000 -14.4070000   8.9020000
   1.7840000 -15.0890000   9.6330000   0.8730000 -14.1480000   7.9220000
   1.2920000 -14.1650000   6.9160000   0.2790000 -12.7370000   7.9750000
   0.1570000 -12.1000000   6.9160000  -0.1790000 -15.2110000   8.0400000
   0.2490000 -16.0570000   7.5000000  -1.1590000 -15.0560000   7.5890000
  -0.4130000 -15.4900000   9.0670000  -0.0060000 -12.1720000   9.1720000
   0.0200000 -12.7410000  10.0060000  -0.5250000 -10.8520000   9.3480000
  -1.3350000 -10.7530000   8.6260000   0.4960000  -9.7140000   8.9030000
   0.0130000  -8.7570000   8.3030000  -1.1040000 -10.4120000  10.6740000
  -0.3870000 -10.5360000  11.4860000  -1.9440000 -11.0740000  10.8860000
  -1.4640000  -9.3900000  10.5550000   1.8050000  -9.8590000   9.2610000
   2.1310000 -10.7290000   9.6580000   2.7990000  -8.8500000   8.8640000
   2.4330000  -7.8740000   9.1810000   2.9620000  -8.6850000   7.3180000
   3.1500000  -7.5200000   6.9600000   4.0930000  -9.1610000   9.5550000
   4.7650000  -8.3640000   9.2380000   4.4800000 -10.1360000   9.2590000
   3.9990000  -9.1180000  10.6400000   3.0050000  -9.7930000   6.5890000
   2.9390000 -10.6900000   7.0480000   3.0850000  -9.8790000   5.1400000
   3.9000000  -9.2350000   4.8080000   1.8250000  -9.3300000   4.5040000
   1.9050000  -8.5760000   3.5070000   3.4110000 -11.3250000   4.6810000
   2.5250000 -11.8590000   5.0250000   3.4580000 -11.2460000   3.5950000
   4.6810000 -11.9110000   5.1950000   4.7690000 -11.7090000   6.2630000
   4.4200000 -13.4340000   5.0380000   5.2300000 -14.0600000   5.4130000
   4.3860000 -13.6500000   3.9700000   3.5490000 -13.7670000   5.6030000
   5.8830000 -11.6410000   4.3430000   6.7440000 -12.2490000   4.6180000
   5.7360000 -11.9200000   3.3000000   6.1510000 -10.5870000   4.2690000
   0.6940000  -9.7800000   4.9620000   0.7410000 -10.4120000   5.7480000
  -0.5860000  -9.1830000   4.5350000  -0.8650000  -9.4220000   3.5090000
  -0.6270000  -7.6270000   4.7500000  -0.8410000  -6.7960000   3.8100000
  -1.5710000  -9.8780000   5.4190000  -2.5930000  -9.5770000   5.1910000
  -1.4870000 -10.9290000   5.1400000  -1.2950000  -9.6730000   6.4530000
  -0.2160000  -7.2120000   5.9160000   0.2100000  -7.8090000   6.6100000
  -0.3630000  -5.7270000   6.1420000  -1.3890000  -5.4240000   5.9330000
   0.5500000  -4.8210000   5.3170000   0.1740000  -3.6830000   4.9860000
  -0.1390000  -5.4670000   7.6560000   0.9230000  -5.6040000   7.8600000
  -0.4670000  -4.4740000   7.9630000  -0.6860000  -6.1810000   8.2730000
   1.7320000  -5.3340000   4.9810000   2.0850000  -6.1790000   5.4070000
   2.6530000  -4.7580000   4.0590000   2.6440000  -3.6780000   4.2040000
   2.2920000  -4.7680000   2.5510000   2.7680000  -3.8380000   1.8730000
   4.1110000  -5.3260000   4.2190000   4.8360000  -4.6690000   3.7380000
   4.4190000  -5.4200000   5.2600000   4.0910000  -6.2850000   3.6990000
   1.5200000  -5.7370000   2.1580000   1.3520000  -6.4060000   2.8960000
   0.8410000  -5.9070000   0.8740000   1.5470000  -5.5810000   0.1100000
   0.5690000  -6.9620000   0.9130000  -0.3140000  -4.9390000   0.7880000
  -0.3320000  -4.0880000  -0.1210000  -1.2830000  -4.9560000   1.7400000
  -1.2540000  -5.7160000   2.4050000  -2.3750000  -4.0140000   1.7890000
  -3.0420000  -4.0760000   0.9290000  -1.8150000  -2.5400000   1.9790000
  -2.3520000  -1.6310000   1.3050000  -3.1260000  -4.3770000   3.0840000
  -2.4100000  -4.5300000   3.8920000  -4.1230000  -3.2820000   3.6040000
  -3.7550000  -2.2560000   3.5950000  -4.5580000  -3.5130000   4.5760000
  -4.9330000  -3.1600000   2.8840000  -3.9250000  -5.7010000   2.9410000
  -4.6370000  -5.6430000   2.1180000  -4.3800000  -5.8940000   3.9130000
  -3.1950000  -6.5050000   2.8490000  -0.6980000  -2.3120000   2.6940000
  -0.3020000  -3.0440000   3.2650000  -0.0050000  -0.9810000   2.6870000
  -0.6720000  -0.1970000   3.0460000   0.5350000  -0.6020000   1.3170000
   0.2810000   0.5270000   0.9080000   1.1340000  -1.0830000   3.6170000
   0.8860000  -1.1620000   4.6750000   1.7670000  -1.9040000   3.2810000
   1.8190000  -0.2340000   3.6030000   1.1880000  -1.5980000   0.6330000
   1.3500000  -2.5170000   1.0210000   1.8080000  -1.2430000  -0.6790000
   2.3560000  -0.3140000  -0.5260000   0.7550000  -0.9240000  -1.7470000
   0.8090000   0.0410000  -2.5160000   2.8490000  -2.3550000  -1.0550000
   3.3380000  -2.1210000  -2.0010000   2.3670000  -3.3160000  -1.2320000
   3.5670000  -2.4280000  -0.2380000  -0.3360000  -1.7430000  -1.7800000
  -0.3020000  -2.5350000  -1.1550000  -1.4720000  -1.6180000  -2.7530000
  -0.9350000  -1.5640000  -3.7000000  -2.1440000  -0.2330000  -2.6910000
  -2.5430000   0.3270000  -3.7320000  -2.3610000  -2.8440000  -2.6560000
  -2.1870000  -3.3050000  -1.6840000  -3.8450000  -2.6430000  -2.8170000
  -4.1310000  -2.4540000  -3.8520000  -4.2900000  -1.8390000  -2.2320000
  -4.3380000  -3.5530000  -2.4740000  -2.0450000  -3.7690000  -3.7690000
  -1.0010000  -4.0800000  -3.8230000  -2.7180000  -4.6200000  -3.8640000
  -2.1930000  -3.2370000  -4.7090000  -2.2260000   0.2610000  -1.4250000
  -1.9340000  -0.3070000  -0.6430000  -2.8820000   1.5760000  -1.1440000
  -3.7230000   1.7990000  -1.8000000  -1.8460000   2.6860000  -1.4930000
  -2.2240000   3.7470000  -2.0550000  -3.2310000   1.6870000   0.3540000
  -2.5240000   1.2280000   1.0450000  -3.4490000   2.7320000   0.5760000
  -4.1630000   1.1690000   0.5800000  -0.5660000   2.5150000  -1.2320000
  -0.3410000   1.6760000  -0.7160000   0.5200000   3.3740000  -1.6320000
   0.3060000   4.3830000  -1.2790000   0.5890000   3.5230000  -3.1430000
   0.5200000   4.5890000  -3.7360000   1.8920000   2.9670000  -1.0000000
   2.7120000   3.5980000  -1.3440000   2.1540000   1.9870000  -1.4000000
   1.7960000   3.1070000   0.0760000   0.4710000   2.4300000  -3.9150000
   0.5400000   1.5570000  -3.4110000   0.3960000   2.3880000  -5.4390000
   1.2470000   2.8880000  -5.9010000  -0.8270000   3.1040000  -5.9840000
  -0.6080000   3.9630000  -6.8290000   0.2970000   0.9400000  -5.9340000
  -0.3660000   0.4660000  -5.2100000  -0.1440000   0.7550000  -7.3750000
  -1.1530000   1.0730000  -7.6370000   0.5150000   1.2010000  -8.1190000
  -0.1420000  -0.3160000  -7.5760000   1.7060000   0.2420000  -5.8760000
   1.5510000  -0.8260000  -6.0270000   2.1860000   0.4180000  -4.9130000
   2.3800000   0.7250000  -6.5840000  -2.0280000   2.8150000  -5.4150000
  -2.1510000   2.0090000  -4.8180000  -3.2370000   3.5190000  -5.7000000
  -3.3910000   3.4090000  -6.7730000  -3.1030000   5.0150000  -5.5810000
  -3.3780000   5.7620000  -6.5060000  -4.3640000   3.0120000  -4.8690000
  -4.5520000   2.0100000  -5.2550000  -4.0360000   2.9340000  -3.8320000
  -5.2170000   3.6500000  -5.0980000  -2.5810000   5.5100000  -4.4110000
  -2.3110000   4.8860000  -3.6640000  -2.4840000   6.9790000  -4.1170000
  -3.4660000   7.4190000  -4.2970000  -1.4250000   7.5870000  -5.0500000
  -1.6560000   8.6510000  -5.6110000  -2.0120000   7.1570000  -2.6710000
  -2.7400000   6.7850000  -1.9510000  -1.0990000   6.5850000  -2.5060000
  -1.7750000   8.1960000  -2.4400000  -0.2580000   6.9640000  -5.1580000
  -0.0490000   6.1310000  -4.6270000   0.7310000   7.3660000  -6.1020000
   1.0250000   8.3810000  -5.8350000   0.1530000   7.4960000  -7.4780000
   0.3540000   8.5820000  -8.0540000   2.0220000   6.5360000  -5.9640000
   2.1720000   6.3830000  -4.8950000   2.8240000   7.1990000  -6.2910000
   1.8860000   5.6370000  -6.5650000  -0.5590000   6.4920000  -7.9970000
  -0.7640000   5.6660000  -7.4530000  -1.0560000   6.5110000  -9.3810000
  -0.1990000   6.7120000 -10.0230000  -2.1790000   7.6240000  -9.6020000
  -2.3060000   8.1790000 -10.6870000  -1.5780000   5.1220000  -9.6820000
  -2.4000000   4.8270000  -9.0300000  -0.7460000   4.4400000  -9.5050000
  -1.9230000   5.0690000 -10.7140000  -2.9760000   7.8450000  -8.5690000
  -2.8300000   7.3580000  -7.6970000  -3.9200000   8.9520000  -8.6080000
  -4.5610000   8.7870000  -9.4740000  -3.2580000  10.2710000  -8.7910000
  -3.8010000  11.1370000  -9.5020000  -4.9110000   8.8670000  -7.4080000
  -4.5000000   9.1540000  -6.4400000  -5.3310000   7.8740000  -7.2500000
  -5.8120000   9.4350000  -7.6380000  -2.1090000  10.4820000  -8.0950000
  -1.7540000   9.7520000  -7.4930000  -1.4210000  11.7970000  -8.0560000
  -2.0480000  12.6680000  -7.8670000  -0.6100000  12.0810000  -9.3810000
  -0.6000000  13.1790000  -9.8750000  -0.4510000  11.7440000  -6.9200000
  -1.1250000  11.7600000  -6.0640000   0.0880000  10.7980000  -6.8600000
   0.5470000  12.9370000  -6.8030000   1.1320000  12.9730000  -7.7210000
  -0.1140000  14.3090000  -6.7080000   0.6230000  15.0270000  -6.3470000
  -0.9410000  14.2910000  -5.9990000  -0.4630000  14.6140000  -7.6940000
   1.4140000  12.6840000  -5.5130000   2.1170000  11.8730000  -5.7020000
   1.9480000  13.6270000  -5.3940000   0.7420000  12.6150000  -4.6570000
  -0.1280000  11.0240000 -10.0050000   0.0150000  10.2050000  -9.4320000
   0.3860000  10.9710000 -11.3830000   1.2310000  11.6480000 -11.5060000
  -0.6570000  11.3880000 -12.4200000  -0.4460000  12.2660000 -13.2900000
   1.0380000   9.5980000 -11.6550000   1.1100000   9.4350000 -12.7300000
   2.0540000   9.6200000 -11.2620000   0.4200000   8.8040000 -11.2370000
  -1.8860000  10.8040000 -12.3350000  -2.0310000   9.9700000 -11.7840000
  -2.9760000  11.1810000 -13.1300000  -2.6890000  11.1280000 -14.1800000
  -3.5110000  12.5920000 -12.9020000  -3.8180000  13.2770000 -13.9040000
  -4.0270000  10.1450000 -12.9770000  -4.1940000   9.8060000 -11.9540000
  -4.8890000  10.6740000 -13.3820000  -3.8400000   9.3540000 -13.7020000
  -3.4590000  13.0950000 -11.6860000  -3.2160000  12.4140000 -10.9800000
  -3.8470000  14.4270000 -11.2690000  -4.8740000  14.6870000 -11.5250000
  -2.9100000  15.4750000 -11.9740000  -3.3920000  16.4150000 -12.4870000
  -3.7980000  14.4750000  -9.7210000  -2.8920000  14.0490000  -9.2880000
  -4.6550000  13.9110000  -9.3520000  -3.8890000  15.8920000  -9.1180000
  -3.1250000  16.5740000  -9.4920000  -5.1950000  16.6010000  -9.5070000
  -5.2370000  16.6220000 -10.5960000  -6.0820000  16.1080000  -9.1090000
  -5.1260000  17.5990000  -9.0760000  -3.8990000  15.6950000  -7.5740000
  -3.5880000  16.6080000  -7.0660000  -3.1310000  14.9600000  -7.3330000
  -4.8640000  15.3910000  -7.1690000  -1.5720000  15.1730000 -11.9130000
  -1.4470000  14.3020000 -11.4170000  -0.4600000  15.8690000 -12.5110000
  -0.7370000  16.9120000 -12.3550000  -0.1770000  15.7160000 -14.0200000
   0.7740000  16.3480000 -14.5900000   0.7660000  15.7790000 -11.5920000
   1.6980000  16.0180000 -12.1050000   0.9610000  14.7090000 -11.6640000
   0.7980000  16.2430000 -10.1220000  -0.0320000  15.7280000  -9.6400000
   2.1070000  15.8860000  -9.5450000   2.0960000  16.0770000  -8.4720000
   2.9340000  16.4240000 -10.0090000   2.1890000  14.8040000  -9.6490000
   0.6930000  17.7570000 -10.1070000   1.0420000  18.1520000  -9.1530000
   1.3410000  18.2820000 -10.8090000  -0.3650000  17.9790000 -10.2410000
  -0.9930000  14.9440000 -14.7250000  -1.7890000  14.6130000 -14.1990000
  -1.0630000  15.0430000 -16.1910000  -0.1120000  15.3950000 -16.5890000
  -2.2330000  15.9900000 -16.5900000  -2.2180000  16.4490000 -17.7470000
  -1.4180000  13.6180000 -16.7980000  -2.1590000  13.0460000 -16.2390000
  -1.8490000  13.7980000 -17.7830000  -0.5040000  13.0250000 -16.7960000
  -3.2050000  16.3430000 -15.7040000  -3.1830000  15.7880000 -14.8600000
  -4.2440000  17.3690000 -15.8720000  -4.3600000  17.5550000 -16.9400000
  -3.9340000  18.7290000 -15.1850000  -4.7200000  19.6560000 -15.3700000
  -5.6550000  16.7790000 -15.4620000  -5.9650000  15.9170000 -16.0540000
  -6.3640000  17.5850000 -15.6470000  -5.4720000  16.4210000 -14.4490000
  -2.9050000  18.7900000 -14.3570000  -2.3550000  17.9530000 -14.2310000
  -2.4460000  19.9580000 -13.5450000  -3.2030000  20.2830000 -12.8310000
  -2.0290000  21.2300000 -14.3600000  -2.3170000  22.3340000 -13.8380000
  -1.2390000  19.4240000 -12.8580000  -0.6590000  20.2710000 -12.4920000
  -1.4900000  18.7210000 -12.0640000  -0.6050000  18.8930000 -13.5680000
  -1.2100000  21.1200000 -15.3240000   0.8300000  -2.2940000  10.2760000
   2.0450000  -1.3940000  10.3190000   2.2730000  -0.8030000   9.0160000
   2.3820000  -1.9400000   8.1740000   3.6980000  -2.2270000   7.7790000
   4.2310000  -1.5520000   6.5610000   5.2530000  -0.6170000   6.8350000
   4.0300000  -3.4420000   7.8340000   4.5800000  -3.7500000   8.9590000
   5.4130000  -3.0290000   9.4380000   4.1860000  -4.9360000   9.6090000
   3.4660000  -4.8320000  10.6350000   3.1300000  -5.8820000  11.4610000
   1.8800000  -6.3640000  11.5080000   1.5310000  -7.3960000  12.3160000
   2.5210000  -7.9610000  13.0650000   2.2540000  -8.9560000  13.8770000
   2.8670000  -8.8490000  15.1160000   3.7670000  -7.5330000  13.0470000
   4.0680000  -6.4730000  12.2630000   0.5117945  -2.5297078  11.3022491
   0.0127242  -1.7816781   9.7472405   1.0819255  -3.2250999   9.7472405
   1.8801402  -0.5951774  11.0570405   2.9247965  -1.9900880  10.6029670
   1.4278355  -0.1662368   8.7156175   3.1557406  -0.1475629   8.9817766
   1.9840132  -2.8114978   8.7144610   1.8136329  -1.7173168   7.2589202
   4.2255467  -1.7164393   8.5981595   4.6347771  -2.3208041   5.8857932
   3.3967426  -0.9952483   6.1092897   5.3699039  -0.5100478   7.9235287
   6.1988842  -0.9689433   6.3974626   4.9863793   0.3563830   6.3974626
   4.4978822  -5.9210123   9.2315346   3.0782060  -3.8347385  10.8901181
   1.1103889  -5.9065499  10.8689083   0.4946217  -7.7613903  12.3650920
   2.1161419  -8.9800633  15.9091169   3.6400354  -9.6257904  15.2109364
   3.3311606  -7.8562553  15.2109364   4.5417744  -8.0247846  13.6535250
   5.0936542  -6.0755313  12.2702117
