
  417  0.0000000e+00
   8.7400000  -4.6500000  -0.4400000   8.7500000  -5.4500000   0.1800000
   8.4600000  -5.0000000  -1.3500000   9.6800000  -4.2800000  -0.4700000
   7.7800000  -3.7100000   0.2300000   7.8500000  -2.7600000  -0.3000000
   8.2500000  -3.4900000   1.6900000   8.8200000  -4.4400000   2.2500000
   6.3500000  -4.2400000   0.3100000   5.8300000  -3.5500000   0.9800000
   6.3900000  -5.1400000   0.9200000   5.7800000  -4.5000000  -1.0300000
   5.5600000  -3.4500000  -1.9400000   5.8600000  -2.4600000  -1.6600000
   5.4200000  -5.8300000  -1.3100000   5.6200000  -6.6400000  -0.6200000
   4.9500000  -3.6400000  -3.1500000   4.7500000  -2.8100000  -3.8000000
   4.6900000  -6.0000000  -2.4700000   4.4000000  -7.0100000  -2.6900000
   4.4100000  -4.9700000  -3.3800000   3.8200000  -5.2000000  -4.2600000
   8.0900000  -2.3600000   2.3200000   8.1000000  -2.2700000   3.7400000
   9.0800000  -2.5700000   4.1100000   7.0000000  -3.1000000   4.4000000
   6.0800000  -3.5600000   3.7200000   7.8700000  -0.7200000   3.9800000
   8.8000000  -0.2000000   3.7700000   7.3800000  -0.5000000   4.9300000
   6.9900000  -0.3400000   2.7800000   5.9700000  -0.6400000   3.0200000
   7.1300000   0.7200000   2.5400000   7.4800000  -1.2200000   1.6200000
   6.6600000  -1.5900000   1.0000000   8.3000000  -0.6800000   1.1600000
   6.9800000  -3.3000000   5.6900000   7.8000000  -3.0400000   6.2100000
   5.8700000  -3.7900000   6.4600000   5.4500000  -4.6700000   5.9700000
   4.8800000  -2.7000000   6.5600000   5.1900000  -1.5500000   6.7800000
   6.4000000  -4.2600000   7.8000000   7.0300000  -5.1200000   7.5800000
   7.0500000  -3.5200000   8.2800000   5.2800000  -4.4600000   8.8700000
   4.5100000  -5.1500000   8.4900000   4.8400000  -3.5000000   9.1400000
   5.7800000  -5.2300000  10.1000000   6.0800000  -6.2000000   9.7000000
   6.6000000  -4.7300000  10.6000000   4.6500000  -5.5300000  11.0400000
   3.7600000  -5.1000000  10.8000000   4.7000000  -6.2800000  12.1700000
   5.7900000  -6.8900000  12.4900000   6.6900000  -6.7100000  12.0700000
   5.6400000  -7.6700000  13.1100000   3.6400000  -6.4400000  12.7800000
   2.8000000  -5.8900000  12.6500000   3.7500000  -6.9500000  13.6500000
   3.5600000  -3.0000000   6.5100000   3.3400000  -3.9700000   6.3600000
   2.3400000  -2.2300000   6.8200000   2.2900000  -1.4400000   6.0600000
   2.3700000  -1.5100000   8.1900000   1.9300000  -2.0400000   9.1900000
   1.0600000  -3.2000000   6.5700000   1.1500000  -4.0600000   7.2400000
   0.9700000  -3.5500000   5.5500000  -0.3100000  -2.4500000   6.8400000
  -0.1100000  -1.4900000   7.3200000  -1.0600000  -2.2900000   5.4900000
  -0.4700000  -1.8400000   4.6900000  -1.2400000  -3.3000000   5.1400000
  -2.0700000  -1.8700000   5.5100000  -1.0400000  -3.2300000   7.8500000
  -1.3000000  -4.2100000   7.4500000  -0.4200000  -3.3400000   8.7500000
  -1.9600000  -2.6900000   8.0800000   3.0600000  -0.3600000   8.3300000
   3.5000000  -0.0200000   7.4900000   3.4300000   0.3800000   9.5400000
   3.1700000  -0.1500000  10.4600000   2.7500000   1.7600000   9.7300000
   2.7100000   2.3900000  10.7700000   4.9700000   0.6000000   9.4900000
   5.3100000   0.9100000   8.5000000   5.1600000   1.3300000  10.2800000
   5.8600000  -0.5900000   9.9600000   5.7100000  -1.4500000   9.3000000
   5.6200000  -0.8800000  10.9800000   7.4200000  -0.2900000   9.9900000
   7.6400000  -0.0300000   8.9600000   7.8900000  -1.2600000  10.1800000
   7.8800000   0.7400000  11.0000000   7.8700000   0.3800000  12.0300000
   7.2400000   1.6200000  11.0000000   9.3100000   1.0900000  10.8100000
   9.8600000   0.2800000  10.5300000   9.7500000   1.3600000  11.6700000
   9.3200000   1.8900000  10.1900000   2.2700000   2.2700000   8.5700000
   2.3900000   1.7400000   7.7200000   1.8000000   3.6000000   8.2900000
   1.6600000   4.1800000   9.2100000   0.3900000   3.5300000   7.6000000
   0.0200000   2.5300000   6.9400000   2.8800000   4.2700000   7.3000000
   2.6400000   5.3100000   7.0600000   2.8700000   3.6600000   6.4000000
   4.3100000   4.2800000   7.6200000   4.6900000   3.3000000   7.9100000
   5.1500000   4.8700000   6.4500000   6.2100000   5.0500000   6.6500000
   5.0700000   4.1600000   5.6300000   4.6900000   5.8200000   6.1600000
   4.5000000   5.2300000   8.8000000   5.5400000   5.4100000   9.0600000
   4.0200000   4.8800000   9.7100000   4.1100000   6.2300000   8.6000000
  -0.3900000   4.6100000   7.6200000  -0.0800000   5.4500000   8.0900000
  -1.6600000   4.7400000   6.8800000  -2.3200000   3.9000000   7.1300000
  -1.4800000   4.6800000   5.4100000  -2.3100000   4.2000000   4.6600000
  -2.4200000   6.0100000   7.3600000  -1.7800000   6.9000000   7.3600000
  -2.6300000   5.9200000   8.4200000  -3.7500000   6.2200000   6.6700000
  -4.3100000   5.3100000   6.8500000  -3.7300000   6.3700000   5.5900000
  -4.4900000   7.3400000   7.3200000  -3.8800000   8.2300000   7.4600000
  -4.8400000   7.1100000   8.3300000  -5.7600000   7.6100000   6.4000000
  -6.2600000   6.6500000   6.2600000  -5.3700000   8.0300000   5.4700000
  -6.7500000   8.4500000   7.1200000  -7.6600000   8.5300000   6.6900000
  -6.8900000   8.1300000   8.0600000  -6.3600000   9.3800000   7.1700000
  -0.3900000   5.2500000   4.9500000   0.2400000   5.6900000   5.6000000
   0.0900000   5.2500000   3.5400000  -0.6400000   5.7800000   2.9200000
   0.1600000   3.8600000   3.0100000   0.0400000   3.7600000   1.8300000
   1.4700000   5.8900000   3.5600000   1.8200000   5.7700000   2.5400000
   1.5000000   6.9500000   3.7900000   2.3500000   5.3000000   4.4500000
   3.1800000   5.4100000   3.9700000   0.4000000   2.8000000   3.8300000
   0.6500000   2.9500000   4.7900000   0.4300000   1.4400000   3.2800000
   1.0500000   1.3300000   2.3900000  -1.0200000   0.9800000   2.9400000
  -1.3300000   0.5400000   1.8500000   0.9800000   0.5400000   4.4000000
   0.3300000   0.5100000   5.2700000   1.0900000  -0.4400000   3.9300000
   2.3900000   0.9200000   4.8700000   3.3000000   0.9900000   4.0400000
   2.5300000   1.0700000   6.0700000  -1.9100000   1.0100000   3.9400000
  -1.5900000   1.2300000   4.8700000  -3.3500000   0.5800000   3.8900000
  -3.4100000  -0.4800000   3.6400000  -4.0900000   1.3000000   2.7300000
  -4.8000000   0.7200000   1.8800000  -4.1000000   0.9700000   5.1400000
  -5.1500000   0.6900000   5.0500000  -3.9400000   1.9800000   5.5000000
  -3.7700000   0.3200000   5.9500000  -3.8400000   2.6300000   2.5000000
  -3.2900000   3.0500000   3.2300000  -4.5800000   3.4500000   1.4900000
  -5.5900000   3.0600000   1.4200000  -3.9500000   3.2200000   0.0800000
  -4.5900000   3.3300000  -0.9700000  -4.4400000   4.9700000   1.8400000
  -4.7000000   5.5300000   0.9400000  -3.4700000   5.2100000   2.2700000
  -5.4500000   5.2300000   2.9100000  -6.3300000   4.6400000   2.6700000
  -4.9800000   4.8600000   3.8300000  -5.7800000   6.7300000   3.0800000
  -4.8900000   7.5500000   2.7100000  -6.9800000   7.0200000   3.3000000
  -2.6600000   2.9800000  -0.0300000  -2.1300000   2.8000000   0.8100000
  -2.0400000   2.6300000  -1.2900000  -2.2600000   3.3200000  -2.1000000
  -2.5200000   1.2200000  -1.8200000  -2.6100000   0.9500000  -3.0300000
  -0.4900000   2.7200000  -1.1700000  -0.2000000   3.6600000  -0.6900000
   0.0100000   1.9100000  -0.6500000  -0.0800000   2.8300000  -2.1800000
  -2.5900000   0.2000000  -0.9100000  -2.5700000   0.3900000   0.0800000
  -3.2500000  -1.0600000  -1.1300000  -2.7400000  -1.5000000  -1.9900000
  -4.7100000  -1.0600000  -1.5600000  -5.0100000  -1.5300000  -2.6700000
  -2.9300000  -2.0600000   0.0500000  -3.4200000  -1.5400000   0.8700000
  -1.3900000  -2.2900000   0.2500000  -0.8200000  -1.4000000  -0.0100000
  -0.9100000  -2.9600000  -0.4700000  -3.6800000  -3.4200000  -0.0900000
  -3.4200000  -3.9400000  -1.0100000  -3.4200000  -4.0800000   0.7300000
  -4.7400000  -3.2100000  -0.2100000  -0.9800000  -2.7400000   1.6800000
  -1.3500000  -3.7400000   1.9200000  -1.1800000  -2.0200000   2.4700000
   0.1000000  -2.8900000   1.6600000  -5.5400000  -0.2500000  -0.8700000
  -5.0900000   0.3700000  -0.2100000  -6.8700000   0.1600000  -1.3000000
  -7.5300000  -0.7000000  -1.3200000  -6.9100000   0.7900000  -2.7300000
  -7.9000000   0.6000000  -3.4500000  -7.5900000   1.0700000  -0.2800000
  -8.6200000   1.3100000  -0.5300000  -7.6800000   0.5800000   0.6900000
  -7.0700000   2.0200000  -0.2200000  -5.8100000   1.4800000  -3.0700000
  -5.1400000   1.6200000  -2.3300000  -5.6400000   2.2100000  -4.3800000
  -6.6500000   2.5400000  -4.6100000  -5.1800000   1.2800000  -5.5800000
  -5.7300000   1.3700000  -6.7100000  -4.7600000   3.4500000  -4.2300000
  -4.6300000   3.9400000  -5.2000000  -3.7800000   3.1300000  -3.8700000
  -5.3100000   4.2900000  -3.2800000  -5.1200000   4.0000000  -2.3900000
  -4.4000000   0.2600000  -5.2600000  -4.0800000   0.1800000  -4.3000000
  -4.0200000  -0.7600000  -6.1600000  -3.6900000  -0.3900000  -7.1300000
  -5.2300000  -1.6600000  -6.3500000  -5.3200000  -2.1500000  -7.5300000
  -2.8000000  -1.5300000  -5.5400000  -1.8800000  -0.9400000  -5.6000000
  -3.1800000  -1.7800000  -4.5500000  -2.5300000  -2.8700000  -6.3400000
  -3.3900000  -3.5300000  -6.2000000  -1.6200000  -3.3400000  -5.9700000
  -2.1700000  -2.6300000  -7.8400000  -1.2400000  -2.0600000  -7.8200000
  -2.9900000  -2.0800000  -8.2900000  -2.0000000  -3.8700000  -8.5800000
  -1.0800000  -4.2100000  -8.8000000  -3.0000000  -4.6600000  -9.0000000
  -4.2100000  -4.3700000  -8.9000000  -4.4500000  -3.4400000  -8.5900000
  -4.8100000  -5.1700000  -9.0800000  -2.6200000  -5.8100000  -9.4500000
  -3.3100000  -6.5500000  -9.4300000  -1.6500000  -6.0800000  -9.3600000
  -6.0500000  -1.9300000  -5.3100000  -5.6600000  -1.7300000  -4.4000000
  -7.3100000  -2.7000000  -5.3100000  -7.1200000  -3.6800000  -5.7600000
  -8.3900000  -2.0100000  -6.3000000  -8.9300000  -2.7200000  -7.1800000
  -7.8400000  -2.8700000  -3.8800000  -7.8300000  -1.9200000  -3.3500000
  -8.9000000  -3.1200000  -3.9700000  -7.1600000  -4.0500000  -3.0400000
  -6.0800000  -4.0000000  -3.1300000  -7.5000000  -3.9300000  -1.5300000
  -6.8300000  -3.2200000  -1.0600000  -7.5400000  -4.9100000  -1.0400000
  -8.5400000  -3.5900000  -1.5400000  -7.6000000  -5.3800000  -3.6000000
  -7.1900000  -6.1400000  -2.9300000  -7.1600000  -5.4400000  -4.5900000
  -8.6900000  -5.4400000  -3.6500000  -8.6600000  -0.7400000  -6.2000000
  -8.3400000  -0.1500000  -5.4400000  -9.3500000   0.0000000  -7.2800000
 -10.3200000  -0.4900000  -7.4000000  -8.7500000  -0.0700000  -8.7000000
  -9.2200000   0.6300000  -9.6200000  -9.5200000   1.5100000  -6.8500000
  -8.5100000   1.8300000  -6.5900000  -9.9600000   2.1400000  -7.6200000
 -10.3000000   1.7000000  -5.5500000 -11.0500000   0.7900000  -5.1500000
 -10.0900000   2.6900000  -4.8600000  -7.6500000  -0.7400000  -8.8900000
  -7.3800000  -1.4000000  -8.1700000  -6.6600000  -0.6300000 -10.0200000
  -5.7500000  -1.2000000  -9.8200000  -7.1700000  -1.1500000 -10.8300000
  -6.1600000   0.7600000 -10.4700000  -5.7900000   0.9700000 -11.6200000
  -6.3200000   1.7700000  -9.6100000  -6.7700000   1.6900000  -8.7100000
  -5.9800000   3.1900000  -9.9400000  -6.4400000   3.4300000 -10.9000000
  -4.4400000   3.4700000 -10.1000000  -4.0600000   4.6000000 -10.4900000
  -6.5900000   4.0400000  -8.8900000  -7.6500000   3.8200000  -8.7700000
  -6.5600000   5.0700000  -9.2500000  -5.9100000   3.9300000  -7.6600000
  -6.1300000   3.1000000  -7.2200000  -3.5900000   2.5500000  -9.7000000
  -3.9400000   1.6100000  -9.6200000  -2.1100000   2.6300000  -9.5600000
  -1.6600000   3.1800000 -10.3900000  -1.4200000   1.3200000  -9.5700000
  -2.0500000   0.2900000  -9.3600000  -1.8200000   3.4700000  -8.2900000
  -2.4500000   4.3400000  -8.4700000  -0.3700000   3.6100000  -8.2700000
  -0.1700000   3.8500000  -7.3600000  -2.2000000   2.7000000  -7.0200000
  -1.4700000   1.9000000  -6.9000000  -2.0300000   3.3400000  -6.1500000
  -3.2000000   2.3000000  -7.1400000  -0.0900000   1.1900000  -9.9100000
   0.4600000   2.0200000 -10.0700000   0.6000000  -0.0200000  -9.6100000
  -0.1000000  -0.8300000  -9.8300000   0.9900000  -0.1900000  -8.1300000
   0.8800000   0.7200000  -7.2900000   1.7600000  -0.1200000 -10.5500000
   2.3400000   0.8000000 -10.5200000   2.3600000  -0.9900000 -10.3000000
   1.3500000  -0.3400000 -11.5400000   1.6600000  -1.3400000  -7.8200000
   1.8000000  -1.9400000  -8.6200000   2.2400000  -1.6700000  -6.5100000
   1.5200000  -1.4700000  -5.7300000   3.5400000  -0.8200000  -6.1800000
   4.5400000  -1.3900000  -5.7200000   2.5000000  -3.2200000  -6.4400000
   3.3800000  -3.4400000  -5.8300000   2.7900000  -3.5300000  -7.4400000
   1.4400000  -4.1800000  -6.0100000   0.7400000  -4.9400000  -6.9000000
   0.8400000  -4.8900000  -7.9800000   1.0100000  -4.5800000  -4.6600000
  -0.1000000  -5.7700000  -6.1400000  -0.7200000  -6.4500000  -6.5700000
  -0.0300000  -5.6000000  -4.7700000   1.3300000  -4.1900000  -3.3200000
   2.1700000  -3.5200000  -3.1800000  -0.7400000  -6.0800000  -3.6400000
  -1.5900000  -6.7300000  -3.7400000   0.7300000  -4.7700000  -2.2200000
   1.0700000  -4.6100000  -1.2100000  -0.2800000  -5.7300000  -2.3700000
  -0.7300000  -6.1900000  -1.5000000   3.6000000   0.4600000  -6.4400000
   2.7600000   0.7400000  -6.9200000   4.7300000   1.3500000  -6.1800000
   5.3600000   0.9500000  -5.3800000   4.2500000   2.7200000  -5.7600000
   3.4100000   3.3600000  -6.3800000   5.7500000   1.6500000  -7.3100000
   6.3200000   2.5700000  -7.2100000   4.9900000   1.7000000  -8.5400000
   4.3000000   2.3400000  -8.3500000   6.7300000   0.4500000  -7.4700000
   7.5100000   0.7800000  -8.1600000   6.2400000  -0.4800000  -7.7700000
   7.2800000   0.2500000  -6.5400000   4.7300000   3.3300000  -4.6500000
   5.4200000   2.7900000  -4.1600000   4.4400000   4.6900000  -4.1900000
   3.3800000   4.9200000  -4.2700000   5.0500000   5.7100000  -5.1600000
   6.2500000   5.6400000  -5.4200000   4.9600000   4.8700000  -2.7400000
   4.1200000   4.6800000  -2.0700000   5.2200000   5.9000000  -2.4900000
   6.1700000   3.9400000  -2.2400000   6.1600000   2.7000000  -2.3900000
   7.1700000   4.5200000  -1.6700000   4.2000000   6.4700000  -5.7800000
   4.2070000  -4.4560000   2.8660000   4.0500000  -3.0350000   2.9150000
   4.1950000  -2.2720000   1.7930000   4.0290000  -2.8900000   0.5540000
   4.1760000  -2.1590000  -0.6160000   4.4990000  -0.8140000  -0.5760000
   4.6710000  -0.0360000  -1.8460000   5.7440000   0.5170000  -2.0730000
   3.5480000   0.0960000  -2.8220000   2.6100000  -0.8640000  -2.9330000
   1.5240000  -0.7940000  -3.7880000   1.4010000   0.3000000  -4.6090000
   2.3540000   1.3060000  -4.5360000   3.4210000   1.1920000  -3.6460000
   4.6620000  -0.1790000   0.6720000   4.9630000   1.1520000   0.7140000
   4.5060000  -0.9230000   1.8400000   4.2511435  -4.8555409   3.8899231
   3.3525795  -4.9012141   2.3351987   5.1380052  -4.7039503   2.3351987
   3.7807209  -3.9604535   0.5041318   4.0340155  -2.6547851  -1.5876159
   2.7136170  -1.7605985  -2.3042118   0.7742565  -1.5986245  -3.8095436
   0.5599209   0.3776184  -5.3136711   2.2675660   2.1933467  -5.1803175
   4.1748780   1.9917868  -3.6011779   5.0792066   1.6059416   1.5860854
   4.6319471  -0.4307416   2.8156121
