
  400  0.0000000e+00
   9.5050000   2.9930000   3.9600000   8.9010000   3.7860000   4.1190000
   9.8260000   3.0070000   3.0020000  10.3840000   3.0020000   4.4580000
   8.7770000   1.7790000   4.1600000   9.4990000   0.9650000   4.0830000
   7.6510000   1.6040000   3.1790000   7.1540000   2.5370000   2.6260000
   8.1850000   1.7780000   5.6010000   7.7840000   0.7890000   5.8240000
   9.0210000   1.8990000   6.2900000   7.1130000   2.8150000   5.9370000
   7.4300000   3.8100000   5.6250000   6.2120000   2.6080000   5.3600000
   6.7170000   2.8180000   7.3850000   7.6030000   2.8580000   8.0180000
   6.1600000   1.9100000   7.6150000   5.9400000   4.1010000   7.6290000
   6.2250000   4.9160000   7.1040000   5.0820000   4.2800000   8.5910000
   4.8230000   3.3950000   9.4230000   5.5380000   2.7000000   9.5840000
   4.1260000   3.5010000  10.1460000   4.4510000   5.4400000   8.6210000
   4.6330000   6.0850000   7.8650000   3.7670000   5.6030000   9.3450000
   7.2260000   0.3400000   3.0930000   7.8790000  -0.3200000   3.4890000
   6.2090000  -0.0290000   2.1340000   6.5010000   0.4240000   1.1860000
   5.2500000   0.4250000   2.3810000   6.0050000  -1.4820000   1.9580000
   6.8300000  -2.2340000   1.3630000   4.8090000  -1.9560000   2.3880000
   4.2060000  -1.2820000   2.8380000   4.3230000  -3.3840000   2.1390000
   3.3800000  -3.5540000   2.6600000   5.0330000  -4.1120000   2.5300000
   4.0350000  -3.5910000   0.6240000   4.3330000  -2.7610000  -0.2480000
   3.5110000  -4.7480000   0.3450000   3.4540000  -5.4370000   1.0810000
   2.8480000  -5.1630000  -0.8730000   3.4670000  -4.9920000  -1.7540000
   1.4680000  -4.4230000  -1.0330000   0.7790000  -4.2020000  -0.0350000
   2.3700000  -6.6040000  -0.7030000   1.8750000  -6.8970000  -1.6290000
   1.6280000  -6.6840000   0.0920000   3.4880000  -7.5620000  -0.3250000
   4.4330000  -7.6890000  -1.0930000   3.3010000  -8.1900000   0.7760000
   1.0410000  -4.1700000  -2.2910000   1.6100000  -4.4520000  -3.0770000
  -0.2760000  -3.6340000  -2.6350000  -0.5250000  -2.7590000  -2.0340000
  -0.2450000  -3.1960000  -3.6330000  -1.4900000  -4.6670000  -2.5560000
  -1.5210000  -5.6500000  -1.8370000  -2.5960000  -4.3210000  -3.2430000
  -2.6400000  -3.4000000  -3.6550000  -3.8000000  -5.1720000  -3.2820000
  -4.3820000  -4.9260000  -4.1700000  -3.6160000  -6.2390000  -3.1570000
  -4.7400000  -4.8530000  -2.1330000  -4.6670000  -3.7580000  -1.6150000
  -5.5530000  -5.8170000  -1.6520000  -5.4780000  -6.7030000  -2.1330000
  -6.3670000  -5.6910000  -0.4820000  -6.7260000  -4.6620000  -0.4740000
  -5.6120000  -5.9740000   0.8150000  -4.8190000  -6.8570000   0.8630000
  -7.6140000  -6.6360000  -0.5910000  -8.3440000  -6.2570000   0.1240000
  -7.3800000  -7.6640000  -0.3140000  -8.4360000  -6.7450000  -1.9020000
  -9.3420000  -7.3160000  -1.6990000  -7.8410000  -7.1380000  -2.7270000
  -8.7820000  -5.3150000  -2.3330000  -9.2270000  -4.6770000  -1.5700000
  -7.9150000  -4.7360000  -2.6500000  -9.8620000  -5.3130000  -3.4980000
  -9.3920000  -5.2400000  -4.4790000 -10.4650000  -6.2090000  -3.6390000
 -10.7460000  -4.1180000  -3.3290000 -11.0390000  -4.0690000  -2.3640000
 -11.4740000  -4.2810000  -4.0100000 -10.2320000  -3.3190000  -3.6720000
  -5.9510000  -5.1310000   1.7520000  -6.7470000  -4.5420000   1.5580000
  -5.4850000  -4.9860000   3.1080000  -5.9080000  -5.7640000   3.7430000
  -4.4020000  -4.9020000   3.1920000  -5.8970000  -3.6370000   3.7330000
  -6.6780000  -2.9720000   3.0520000  -5.4760000  -3.3060000   4.9830000
  -4.7760000  -3.7930000   5.5250000  -5.9510000  -2.0630000   5.6620000
  -7.0010000  -1.8550000   5.4590000  -5.7800000  -2.2820000   6.7160000
  -5.2040000  -0.8770000   5.1650000  -4.5740000  -0.8290000   4.1230000
  -5.0810000   0.2000000   5.9960000  -5.7380000   0.2130000   6.7630000
  -4.5380000   1.5180000   5.5440000  -4.9680000   1.8170000   4.5880000
  -4.8860000   2.3030000   6.2140000  -3.0350000   1.5480000   5.5310000
  -2.3440000   1.2750000   6.5180000  -2.4220000   1.9230000   4.3870000
  -3.0120000   2.0860000   3.5830000  -1.0870000   1.6840000   4.0530000
  -0.9180000   0.6540000   4.3680000  -1.0040000   1.7840000   2.9710000
  -0.2370000   2.6660000   4.8100000  -0.4660000   3.8760000   4.7480000
   0.6860000   2.1680000   5.5960000   1.0410000   1.2440000   5.3980000
   1.5420000   2.8780000   6.5890000   0.9990000   3.6320000   7.1590000
   2.6120000   3.5350000   5.8240000   3.6850000   2.9730000   5.4610000
   2.0410000   1.7910000   7.6450000   2.8860000   1.3720000   7.0990000
   2.4450000   2.3310000   8.5010000   1.0600000   0.6780000   8.1520000
   0.5890000   0.1940000   7.2970000   1.7580000  -0.5120000   8.8360000
   2.5020000  -0.9980000   8.2050000   0.9490000  -1.1970000   9.0920000
   2.2000000  -0.2190000   9.7880000  -0.0520000   1.3210000   8.9990000
  -0.6130000   1.9840000   8.3400000   0.3500000   1.9140000   9.8210000
  -0.8440000   0.6210000   9.2670000   2.3620000   4.8200000   5.3890000
   1.3980000   5.1050000   5.4820000   3.3960000   5.7310000   4.7760000
   4.2710000   5.7040000   5.4260000   2.9320000   6.7150000   4.8530000
   3.9030000   5.4140000   3.3900000   4.6010000   6.1820000   2.7740000
   3.6470000   4.1700000   2.8200000   3.3200000   3.4610000   3.4610000
   4.1320000   3.8070000   1.5080000   4.0810000   2.7250000   1.3940000
   5.1350000   4.1690000   1.2820000   3.1610000   4.4120000   0.4040000
   1.9750000   4.4610000   0.5750000   3.7160000   4.9460000  -0.6460000
   4.6950000   4.7380000  -0.7810000   2.9560000   5.5550000  -1.7210000
   3.6560000   6.2550000  -2.1760000   2.1030000   6.1200000  -1.3440000
   2.5480000   4.6320000  -2.7950000   3.4830000   4.1080000  -3.4580000
   1.2380000   4.5040000  -3.0240000   0.5180000   4.9070000  -2.4420000
   0.7240000   3.5060000  -3.9650000   1.5070000   3.1470000  -4.6330000
   0.2260000   2.6940000  -3.4350000  -0.3690000   4.1070000  -4.9600000
  -0.4210000   5.3330000  -5.2080000  -1.3270000   3.2550000  -5.4780000
  -1.3420000   2.2870000  -5.1920000  -2.3150000   3.6940000  -6.5260000
  -1.7820000   4.2210000  -7.3170000  -3.3060000   4.8070000  -5.9060000
  -3.9690000   5.5510000  -6.6480000  -3.0570000   2.5340000  -7.1980000
  -3.7540000   2.1740000  -6.4420000  -3.5700000   2.9340000  -8.0730000
  -2.1370000   1.4430000  -7.7590000  -1.7280000   0.8250000  -6.9600000
  -1.2650000   1.9020000  -8.2230000  -2.8800000   0.6020000  -8.8000000
  -2.8080000   0.9910000  -9.8160000  -3.9410000   0.5290000  -8.5620000
  -2.1970000  -0.7930000  -8.7560000  -2.5610000  -1.3180000  -7.8720000
  -1.1490000  -0.5130000  -8.6510000  -2.4430000  -1.6840000  -9.9070000
  -1.8700000  -2.5150000  -9.9410000  -2.3510000  -1.2160000 -10.7970000
  -3.3850000  -1.9850000  -9.7020000  -3.2680000   4.9600000  -4.5900000
  -2.7030000   4.3200000  -4.0500000  -4.1000000   5.9560000  -3.9320000
  -3.8350000   6.9440000  -4.3090000  -5.1510000   5.8320000  -4.1930000
  -3.8860000   5.9840000  -2.4520000  -2.9760000   5.4730000  -1.8820000
  -4.6710000   6.8310000  -1.7530000  -5.4020000   7.2770000  -2.2890000
  -4.6380000   6.9730000  -0.3320000  -3.6270000   6.7650000   0.0200000
  -5.3440000   5.7740000   0.2670000  -6.5400000   5.4940000  -0.0670000
  -5.1660000   8.3590000   0.0510000  -6.0230000   8.5600000  -0.5920000
  -4.0350000   9.3790000  -0.0410000  -4.3090000  10.3550000   0.3610000
  -3.1670000   9.0370000   0.5230000  -5.8190000   8.3560000   1.4830000
  -5.9220000   9.3640000   1.8850000  -6.7940000   7.8790000   1.5780000
  -5.2660000   7.8110000   2.2480000  -3.6940000   9.6810000  -1.5100000
  -3.2470000  10.6750000  -1.4930000  -4.6470000   9.7750000  -2.0310000
  -3.0270000   8.9630000  -1.9890000  -4.6210000   5.1380000   1.1590000
  -3.8120000   5.5960000   1.5530000  -5.2710000   4.1090000   1.9290000
  -6.1880000   4.5530000   2.3180000  -4.7040000   3.8610000   2.8260000
  -5.8420000   2.8740000   1.2880000  -6.5350000   2.0420000   1.8910000
  -5.4530000   2.6010000  -0.0220000  -4.9810000   3.3550000  -0.4980000
  -6.2170000   1.5570000  -0.7190000  -7.2710000   1.6360000  -0.4540000
  -5.9010000   0.1210000  -0.2540000  -6.7760000  -0.7200000  -0.4070000
  -5.9670000   1.6660000  -2.2050000  -6.3360000   0.7000000  -2.5520000
  -4.8810000   1.6320000  -2.2900000  -6.5850000   2.9260000  -2.8440000
  -5.9460000   3.7550000  -2.5370000  -7.6000000   3.1750000  -2.5340000
  -6.6660000   2.8030000  -4.4330000  -6.2560000   1.7940000  -5.0470000
  -7.2470000   3.7250000  -5.0340000  -4.7830000  -0.0680000   0.4510000
  -4.0810000   0.6580000   0.4300000  -4.4250000  -1.4010000   0.9680000
  -4.3980000  -2.1150000   0.1450000  -5.1360000  -1.6830000   1.7450000
  -3.0230000  -1.4940000   1.6770000  -2.1900000  -0.5920000   1.5750000
  -2.7120000  -2.6330000   2.3040000  -3.4930000  -3.2690000   2.3640000
  -1.4210000  -3.1570000   2.7770000  -0.6210000  -2.9020000   2.0820000
  -1.3940000  -4.6420000   3.0900000  -2.2710000  -5.2110000   3.7530000
  -0.9280000  -2.4940000   4.1050000  -1.1020000  -1.4200000   4.1660000
  -1.4530000  -2.8180000   5.0040000   0.5040000  -2.6170000   4.5670000
   0.9490000  -3.4860000   5.4970000   0.3640000  -4.2580000   5.9760000
   1.6040000  -1.6070000   4.3980000   2.1960000  -3.1560000   5.9300000
   2.6270000  -3.7060000   6.6590000   2.6000000  -1.9390000   5.4150000
   1.8270000  -0.4010000   3.6760000   1.0520000  -0.0860000   2.9930000
   3.6990000  -1.0950000   5.6280000   4.3610000  -1.3390000   6.4450000
   2.9450000   0.3990000   3.9100000   2.9770000   1.3770000   3.4540000
   3.9010000   0.0520000   4.8490000   4.8150000   0.5850000   5.0650000
  -0.4440000  -5.3750000   2.5150000   0.2040000  -4.9800000   1.8480000
  -0.2640000  -6.7670000   2.7990000  -0.5220000  -6.8950000   3.8500000
   0.7880000  -7.0250000   2.6780000  -1.1020000  -7.6690000   1.9770000
  -1.4110000  -8.7190000   2.4560000  -1.4260000  -7.2920000   0.7300000
  -1.0480000  -6.4620000   0.2960000  -2.2120000  -8.0550000  -0.1930000
  -2.8010000  -7.2530000  -0.6370000  -2.7550000  -8.8220000   0.3590000
  -1.4610000  -8.7180000  -1.2780000  -0.2220000  -8.7210000  -1.2930000
  -2.2210000  -9.2700000  -2.2200000  -3.1820000  -9.4840000  -1.9960000
  -1.8450000  -9.6400000  -3.5650000  -0.8150000  -9.9870000  -3.4810000
  -1.7700000  -8.3850000  -4.4370000  -2.8560000  -7.8860000  -4.7170000
  -2.7710000 -10.6990000  -4.2220000  -2.5370000 -10.8730000  -5.2730000
  -3.8090000 -10.3740000  -4.2810000  -2.7150000 -12.0350000  -3.4470000
  -2.2390000 -12.2150000  -2.3070000  -3.4900000 -12.9350000  -3.8840000
  -0.6130000  -7.9220000  -4.8490000   0.2540000  -8.3850000  -4.6180000
  -0.4460000  -6.7140000  -5.6900000  -0.6550000  -6.9070000  -6.7430000
  -1.2790000  -6.0540000  -5.4490000   0.9490000  -6.0690000  -5.4360000
   1.6200000  -6.2610000  -4.4490000   1.3410000  -5.2590000  -6.3980000
   0.7540000  -5.1000000  -7.2040000   2.5110000  -4.4070000  -6.3460000
   3.3650000  -5.0850000  -6.3450000   2.6160000  -3.3970000  -5.2080000
   1.7530000  -2.5190000  -5.0490000   2.7000000  -3.6260000  -7.6390000
   3.6070000  -3.0220000  -7.6710000   2.8880000  -4.4220000  -8.3610000
   1.6280000  -2.8460000  -8.0080000   1.7110000  -1.9610000  -7.6460000
   3.7880000  -3.5890000  -4.5500000   4.2960000  -4.3970000  -4.8810000
   4.2160000  -2.7560000  -3.3990000   5.1360000  -3.2020000  -3.0200000
   3.4000000  -2.6660000  -2.6830000   4.5280000  -1.3300000  -3.7750000
   4.8790000  -1.0620000  -4.9050000   4.4030000  -0.5420000  -2.7380000
   4.1630000  -1.0380000  -1.8910000   4.3580000   0.9600000  -2.7670000
   3.3530000   1.2370000  -2.4500000   4.5710000   1.4420000  -3.7220000
   5.4230000   1.6380000  -1.9180000   5.7440000   1.1990000  -0.8100000
   6.0500000   2.7580000  -2.3170000   5.6910000   3.1810000  -3.1600000
   7.2710000   3.2880000  -1.7400000   7.8060000   2.4860000  -1.2310000
   7.0880000   4.5380000  -0.9090000   6.3180000   5.4300000  -1.4000000
   8.1430000   3.7310000  -2.9290000   7.6650000   4.6070000  -3.3680000
   9.1360000   3.9650000  -2.5460000   8.3250000   2.7370000  -4.0730000
   9.0890000   3.0980000  -4.7610000   7.4240000   2.5070000  -4.6430000
   9.0880000   1.4470000  -3.6220000   9.8120000   1.4510000  -2.5940000
   9.0820000   0.5100000  -4.4650000   7.7020000   4.7930000   0.2360000
   8.3520000   4.2020000   0.7330000   7.6080000   6.1630000   0.9100000
   6.5970000   6.5710000   0.8880000   8.3200000   6.8170000   0.4070000
   8.2270000   6.1290000   2.3180000   9.0380000   5.2540000   2.5640000
   7.8160000   6.9680000   3.2560000   7.0940000   7.5980000   2.9380000
   8.2980000   7.0990000   4.6010000   8.7990000   6.2000000   4.9600000
   7.1180000   7.2210000   5.6360000   6.2310000   8.0610000   5.3920000
   9.2170000   8.3060000   4.6120000  10.0940000   8.1510000   3.9840000
   9.5270000   8.4810000   5.6420000   8.5430000   9.5400000   4.2700000
   7.6970000   9.4290000   4.7100000   7.0030000   6.4920000   6.5920000
  -0.4530000   0.2310000  -1.3930000   0.1040000   0.5470000  -0.0260000
  -0.1700000   1.9680000   0.3760000  -1.5900000   2.1640000   0.7940000
  -2.4080000   2.9880000  -0.1760000  -3.3040000   3.9700000   0.5630000
  -2.8100000   5.4040000   0.5790000  -3.1980000   2.1160000  -0.9490000
  -3.3530000   2.3610000  -2.2420000  -3.4210000   3.4830000  -2.6970000
  -3.4850000   1.1330000  -3.0370000  -3.3510000   1.1960000  -4.3670000
  -3.5860000   0.0340000  -5.2410000  -2.5520000  -0.6950000  -5.7830000
  -2.8090000  -1.8050000  -6.5710000  -4.1010000  -2.1790000  -6.8250000
  -4.4150000  -3.2730000  -7.5790000  -5.5530000  -4.0580000  -7.2480000
  -5.1470000  -1.4550000  -6.2820000  -4.8830000  -0.3380000  -5.4990000
  -1.4051380  -0.3091717  -1.2850753  -0.6230559   1.1671389  -1.9450189
   0.2633161  -0.3952319  -1.9450189  -0.3583804  -0.1263953   0.7107110
   1.1944950   0.4071967  -0.0617172   0.4880743   2.2330463   1.2166477
   0.0210884   2.6118340  -0.4951848  -2.0617003   1.1750597   0.8914474
  -1.5689059   2.7181988   1.7439572  -1.7286795   3.5656699  -0.8200661
  -4.2938582   3.9557451   0.0834402  -3.3211836   3.6398136   1.6121338
  -2.6941455   5.7403063   1.6199014  -1.8396287   5.4632956   0.0643510
  -3.5379689   6.0483584   0.0643510  -3.6918549   0.1715418  -2.5442433
  -3.0542672   2.1512804  -4.8245904  -1.5121209  -0.3935027  -5.5887042
  -1.9751438  -2.3855975  -6.9924147  -5.6477494  -4.1233588  -6.1540390
  -6.4558990  -3.5897243  -7.6669169  -5.4359341  -5.0683486  -7.6669169
  -6.1861622  -1.7630412  -6.4697564  -5.7149886   0.2501838  -5.0844704
