
  550  0.0000000e+00
  -4.6190000   0.6530000 -10.9350000  -5.3220000   0.8570000 -11.6310000
  -5.0180000   0.6880000 -10.0080000  -4.3340000  -0.3090000 -11.0450000
  -3.4600000   1.5100000 -11.0310000  -2.8270000   1.4210000 -11.9140000
  -2.5050000   1.1990000  -9.9150000  -2.9260000   1.1490000  -8.7510000
  -3.9050000   2.9500000 -11.0820000  -4.7000000   3.3030000 -10.4260000
  -4.2030000   3.1720000 -12.1070000  -2.7860000   3.7180000 -10.8470000
  -2.7580000   4.4780000 -11.4330000  -1.2170000   0.9700000 -10.2900000
  -0.8370000   0.9360000 -11.2250000  -0.2830000   0.6330000  -9.2060000
  -0.7510000  -0.1430000  -8.6000000  -0.0270000   1.8540000  -8.2030000
   0.0330000   1.6150000  -7.0100000   0.9580000   0.1380000  -9.8800000
   1.3220000   0.9160000 -10.5520000   0.7600000  -0.7290000 -10.5100000
   2.1880000  -0.1540000  -9.0060000   1.9380000  -0.9100000  -8.2620000
   2.5730000   0.7380000  -8.5120000   3.2810000  -0.7250000  -9.9380000
   2.9740000  -1.6790000 -10.3670000   3.5460000  -0.0930000 -10.7860000
   4.5490000  -0.9170000  -9.0510000   4.7680000   0.0630000  -8.6280000
   4.3070000  -1.6560000  -8.2870000   5.6420000  -1.3010000  -9.9410000
   6.5080000  -1.2400000  -9.4250000   5.6370000  -2.2720000 -10.2190000
   5.6840000  -0.7160000 -10.7630000   0.0750000   3.0530000  -8.7650000
  -0.0030000   3.0850000  -9.7710000   0.3080000   4.3330000  -8.0210000
   1.2510000   4.3180000  -7.4740000  -0.8060000   4.6330000  -7.0400000
  -0.5100000   4.8960000  -5.9050000   0.5040000   5.4190000  -9.0860000
  -0.4990000   5.7170000  -9.3930000   0.9190000   6.3120000  -8.6190000
   1.3430000   5.1140000 -10.3880000   0.7110000   4.4630000 -10.9910000
   1.4060000   6.0470000 -10.9490000   2.6970000   4.4530000 -10.1810000
   3.4310000   4.9460000  -9.2830000   3.0430000   3.5970000 -11.0710000
  -2.0110000   4.4110000  -7.5060000  -2.1070000   4.1660000  -8.4810000
  -3.2130000   4.3470000  -6.6070000  -3.3310000   5.3080000  -6.1070000
  -3.1450000   3.4660000  -5.3660000  -3.5850000   3.8340000  -4.2780000
  -4.3730000   4.0950000  -7.5980000  -4.3690000   4.8220000  -8.4100000
  -4.2210000   3.1520000  -8.1250000  -5.7290000   4.1020000  -6.9230000
  -6.3450000   3.6660000  -7.7090000  -5.7390000   3.4590000  -6.0420000
  -6.2240000   5.5530000  -6.6390000  -6.3840000   6.3730000  -7.5950000
  -6.3800000   5.9730000  -5.4950000  -2.7620000   2.1820000  -5.5680000
  -2.4080000   2.0050000  -6.4970000  -2.5940000   1.0870000  -4.5830000
  -3.4430000   1.0180000  -3.9030000  -1.4660000   1.4620000  -3.6480000
  -1.7560000   1.5260000  -2.4950000  -2.2850000  -0.2580000  -5.1840000
  -1.9330000  -0.8800000  -4.3610000  -1.5160000  -0.2070000  -5.9550000
  -3.4830000  -0.9220000  -5.8670000  -3.9650000  -0.1610000  -6.4810000
  -2.8950000  -2.1400000  -6.6700000  -2.0880000  -1.8940000  -7.3600000
  -3.5930000  -2.5770000  -7.3840000  -2.5450000  -2.9360000  -6.0130000
  -4.5130000  -1.5000000  -4.9110000  -4.1270000  -2.3530000  -4.3530000
  -4.8740000  -0.7480000  -4.2100000  -5.3460000  -1.9200000  -5.4740000
  -0.2470000   1.7430000  -4.0810000  -0.0720000   1.6420000  -5.0710000
   0.8260000   2.2560000  -3.2250000   0.9970000   1.5030000  -2.4560000
   0.4610000   3.5540000  -2.4390000   0.8110000   3.6770000  -1.2550000
   2.2060000   2.3390000  -3.9410000   1.9940000   2.7790000  -4.9150000
   2.7820000   0.9330000  -4.1760000   3.7470000   0.7120000  -3.7200000
   2.1540000   0.1940000  -3.6790000   3.2260000   3.1580000  -3.2030000
   4.1910000   3.1870000  -3.7100000   3.3710000   2.7690000  -2.1950000
   2.9220000   4.1970000  -3.0780000   2.9240000   0.6420000  -5.6550000
   1.9560000   0.4470000  -6.1150000   3.5550000  -0.2450000  -5.7090000
   3.4640000   1.4770000  -6.1030000  -0.3540000   4.4270000  -3.0050000
  -0.7690000   4.3480000  -3.9230000  -0.9170000   5.5770000  -2.2470000
  -0.1130000   6.1580000  -1.7960000  -1.8890000   5.1670000  -1.1360000
  -1.7660000   5.7110000  -0.0100000  -1.6220000   6.5800000  -3.1630000
  -0.8150000   7.0340000  -3.7390000  -2.2950000   6.0100000  -3.8040000
  -2.4740000   7.7000000  -2.5960000  -3.2140000   7.3900000  -1.8590000
  -1.8960000   8.4630000  -2.0740000  -3.1860000   8.5450000  -3.6940000
  -2.4460000   8.9560000  -4.3810000  -3.6490000   9.4380000  -3.2720000
  -4.2850000   7.6600000  -4.3810000  -3.7400000   6.7950000  -4.7590000
  -5.1150000   7.4200000  -3.7170000  -4.9580000   8.3760000  -5.4330000
  -5.6480000   7.8000000  -5.8930000  -4.3360000   8.7630000  -6.1290000
  -5.5790000   9.1020000  -5.1040000  -2.9280000   4.3370000  -1.4130000
  -2.9400000   3.9530000  -2.3470000  -3.8890000   3.8200000  -0.4470000
  -4.4100000   4.6090000   0.0960000  -3.2280000   2.8910000   0.5580000
  -3.5350000   2.9310000   1.7550000  -4.9820000   2.9630000  -1.1640000
  -4.4550000   2.2470000  -1.7940000  -5.5640000   3.6090000  -1.8220000
  -6.0290000   2.3040000  -0.2890000  -6.8000000   1.8570000  -0.9160000
  -5.6760000   1.4480000   0.2850000  -6.7540000   3.2880000   0.6960000
  -5.9990000   3.5360000   1.4420000  -7.0420000   4.1280000   0.0630000
  -8.0440000   2.6190000   1.2410000  -7.7060000   2.0040000   2.0760000
  -8.4790000   1.9260000   0.5210000  -8.8270000   3.6870000   1.8340000
  -9.4490000   3.2800000   2.5170000  -8.3200000   4.3050000   2.4510000
  -9.3190000   4.2980000   1.1970000  -2.1420000   2.2350000   0.1580000
  -2.0080000   2.3740000  -0.8330000  -1.1620000   1.4940000   0.9080000
  -1.6500000   0.5820000   1.2530000  -0.3560000   1.3650000   0.1850000
  -0.5920000   2.3550000   2.0720000  -0.6330000   2.0530000   3.2480000
  -0.0520000   3.4880000   1.6870000  -0.0030000   3.6140000   0.6860000
   0.6180000   4.5400000   2.5640000   1.2180000   3.9890000   3.2890000
  -0.3700000   5.3150000   3.4740000  -0.0770000   5.8080000   4.5410000
   1.5440000   5.3760000   1.6880000   1.8580000   6.2590000   2.2440000
   1.0730000   5.7190000   0.7670000   2.7180000   4.5100000   1.3080000
   3.2440000   4.1630000   2.1980000   2.3620000   3.5870000   0.8500000
   3.6810000   5.1590000   0.2710000   3.1710000   5.4130000  -0.6580000
   4.0220000   6.1140000   0.6720000   4.8850000   4.2020000   0.0450000
   4.6400000   3.2290000  -0.3800000   5.3610000   3.8770000   0.9700000
   5.8780000   4.9200000  -0.7430000   5.3800000   5.3090000  -1.5300000
   6.5710000   4.2520000  -1.0500000   6.4030000   5.6220000  -0.2410000
  -1.6800000   5.3810000   3.1550000  -2.0310000   5.2300000   2.2200000
  -2.7230000   5.7260000   4.0940000  -2.4420000   6.6190000   4.6510000
  -2.9290000   4.6660000   5.1700000  -3.0600000   5.0680000   6.3200000
  -3.9900000   6.0870000   3.3810000  -4.7960000   6.1000000   4.1150000
  -4.2290000   5.3380000   2.6260000  -3.9160000   7.4250000   2.6670000
  -3.8680000   8.1870000   3.4450000  -3.0750000   7.5620000   1.9880000
  -5.3090000   7.5670000   1.9460000  -6.3220000   7.2450000   2.5450000
  -5.3800000   8.2160000   0.8520000  -2.8820000   3.4070000   4.7950000
  -2.5390000   3.1100000   3.8920000  -3.2940000   2.3990000   5.7300000
  -4.0680000   2.8190000   6.3720000  -2.1710000   2.1640000   6.7030000
  -2.4640000   1.7270000   7.8050000  -3.7060000   1.0980000   4.9930000
  -2.8590000   0.9430000   4.3250000  -3.8140000   0.2740000   5.6980000
  -5.0140000   1.0660000   4.2640000  -5.0970000   2.0780000   3.8670000
  -4.9820000   0.0330000   3.0550000  -4.8960000  -0.9770000   3.4570000
  -5.8620000   0.1680000   2.4260000  -4.0680000   0.2000000   2.4870000
  -6.2160000   0.7950000   5.1700000  -7.1660000   0.8850000   4.6440000
  -6.0920000  -0.1210000   5.7490000  -6.1830000   1.6900000   5.7910000
  -0.9310000   2.5150000   6.3160000  -0.7610000   2.6650000   5.3320000
   0.1170000   2.6510000   7.3090000   0.1450000   1.6590000   7.7590000
  -0.1960000   3.7290000   8.3420000  -0.1270000   3.4210000   9.5220000
   1.5790000   2.7990000   6.7380000   1.5920000   3.4360000   5.8530000
   2.0720000   1.4700000   6.0790000   1.3010000   1.1030000   5.4010000
   2.2250000   0.7570000   6.8900000   2.6210000   3.4520000   7.5950000
   2.2940000   4.4540000   7.8740000   3.5480000   3.6690000   7.0660000
   2.9970000   2.8370000   8.4130000   3.3480000   1.7220000   5.3030000
   3.2800000   2.6760000   4.7820000   4.1730000   1.6980000   6.0150000
   3.5150000   0.8240000   4.7080000  -0.6050000   4.9490000   7.9780000
  -0.7910000   5.1460000   7.0040000  -0.8520000   6.1100000   8.8440000
   0.0380000   6.2690000   9.4530000  -2.0050000   5.8600000   9.8440000
  -1.9160000   6.1670000  11.0200000  -0.9970000   7.4200000   8.0850000
  -1.6940000   7.1510000   7.2920000  -1.4310000   8.1720000   8.7440000
   0.3060000   7.8870000   7.5410000   0.9520000   8.2970000   8.3170000
   0.8690000   7.0790000   7.0740000   0.0040000   9.0000000   6.4900000
  -0.6430000   8.5470000   5.7380000  -0.6680000   9.7330000   6.9360000
   1.1890000   9.6710000   5.7750000   1.8800000   8.9360000   5.3610000
   1.7600000  10.2640000   6.4900000   0.6710000  10.5370000   4.6760000
   1.4420000  11.0480000   4.2700000  -0.0660000  11.1070000   5.0640000
   0.3470000  10.0070000   3.8790000  -3.0420000   5.1140000   9.3780000
  -3.0960000   5.1360000   8.3690000  -4.2590000   4.7010000  10.1140000
  -4.5560000   5.4520000  10.8460000  -3.9100000   3.3850000  10.9100000
  -4.7700000   2.8840000  11.6400000  -5.5210000   4.4490000   9.1960000
  -5.2520000   3.7710000   8.3860000  -6.2970000   3.9940000   9.8110000
  -6.0890000   5.7020000   8.4260000  -6.3660000   6.2960000   9.2970000
  -5.2430000   6.1440000   7.9010000  -7.2400000   5.3810000   7.4640000
  -7.3600000   6.0840000   6.4410000  -8.0150000   4.4060000   7.6340000
  -2.7370000   2.7780000  10.8300000  -2.0380000   3.2390000  10.2640000
  -2.2390000   1.7110000  11.6990000  -1.1530000   1.7610000  11.6230000
  -2.5910000   1.8530000  12.7210000  -2.6210000   0.3060000  11.2760000
  -2.3380000  -0.6290000  12.0140000  -3.3130000   0.1200000  10.1770000
  -3.4340000   1.0020000   9.7000000  -4.0340000  -1.0700000   9.7610000
  -4.4390000  -1.5650000  10.6440000  -2.9980000  -2.0210000   9.1500000
  -3.1460000  -3.2050000   9.3520000  -5.0610000  -0.7870000   8.6530000
  -4.4530000  -0.4580000   7.8100000  -5.7320000  -1.6140000   8.4180000
  -5.9780000   0.4220000   9.0250000  -5.3130000   1.2270000   9.3360000
  -6.6960000   0.7490000   8.2720000  -6.9160000   0.0070000  10.1960000
  -6.3860000  -0.4060000  11.0550000  -7.6250000  -0.7350000   9.8300000
  -7.7290000   1.1550000  10.7620000  -6.9400000   1.8090000  11.1340000
  -8.3110000   1.6040000   9.9570000  -8.5490000   0.7930000  11.9000000
  -8.0710000   0.6280000  12.7740000  -9.3490000   1.4040000  11.9800000
  -8.9960000  -0.0880000  11.6890000  -1.9600000  -1.4910000   8.4940000
  -1.9680000  -0.4880000   8.3770000  -0.7860000  -2.2460000   8.0090000
  -1.0330000  -3.3040000   8.1010000   0.3790000  -2.0480000   8.9950000
   0.5620000  -1.0400000   9.6930000  -0.3800000  -1.9520000   6.6420000
  -0.0590000  -0.9110000   6.6150000   0.5370000  -2.5000000   6.4250000
  -1.5420000  -2.1600000   5.5750000  -2.4520000  -1.6400000   5.8750000
  -1.2250000  -1.5150000   4.2740000  -2.1270000  -1.4510000   3.6650000
  -0.4740000  -2.0620000   3.7030000  -0.8810000  -0.4940000   4.4350000
  -1.6750000  -3.7610000   5.3520000  -1.4340000  -4.3160000   6.2580000
  -0.9560000  -4.0190000   4.5750000  -2.7100000  -3.9630000   5.0760000
   1.1950000  -3.1310000   9.2260000   2.5990000  -3.0200000   9.6350000
   2.7110000  -2.4840000  10.5780000   3.4410000  -2.1850000   8.5280000
   3.1080000  -2.1860000   7.3260000   3.0070000  -4.4280000   9.7750000
   4.0950000  -4.4900000   9.7600000   2.6440000  -4.7990000  10.7330000
   2.3620000  -5.1250000   8.6320000   3.0060000  -4.9270000   7.7750000
   2.3050000  -6.2050000   8.7680000   1.0120000  -4.4120000   8.5990000
   0.2230000  -4.9780000   9.0940000   0.7700000  -4.3930000   7.5370000
   4.4950000  -1.4410000   8.9330000   5.3890000  -0.6650000   8.0590000
   4.8900000   0.2640000   7.7840000   5.9500000  -1.4790000   6.9020000
   6.3010000  -2.6580000   7.1250000   6.5760000  -0.2350000   8.9620000
   6.5970000   0.8110000   9.2670000   7.5020000  -0.5700000   8.4970000
   6.4240000  -1.1250000  10.2300000   6.9110000  -2.0820000  10.0420000
   6.7360000  -0.7030000  11.1850000   4.9380000  -1.4620000  10.3380000
   4.7490000  -2.4040000  10.8520000   4.3580000  -0.7220000  10.8910000
   6.0750000  -0.8720000   5.7550000   5.9260000   0.1210000   5.6400000
   6.2040000  -1.6480000   4.5230000   6.9120000  -2.4700000   4.6320000
   6.7290000  -0.7640000   3.3420000   6.5140000   0.4330000   3.3120000
   4.8900000  -2.3390000   4.1820000   4.4300000  -2.7510000   5.0800000
   4.1040000  -1.6370000   3.9010000   4.9960000  -3.4330000   3.1160000
   5.4430000  -3.1000000   2.1790000   5.5710000  -4.2890000   3.4670000
   3.4030000  -4.0320000   2.5930000   2.8680000  -4.9630000   4.0320000
   2.5200000  -4.3500000   4.8630000   3.6550000  -5.6000000   4.4350000
   2.0830000  -5.6010000   3.6250000   7.3940000  -1.3170000   2.3600000
   7.6170000  -2.2890000   2.5160000   7.9170000  -0.6180000   1.1290000
   7.8580000   0.4570000   1.2990000   7.1400000  -0.9230000  -0.1750000
   6.4330000  -1.9250000  -0.2070000   9.3290000  -0.9480000   0.8600000
   9.6270000  -0.4320000  -0.0520000   9.4540000  -2.3890000   0.7180000
   9.1020000  -2.7860000   1.5180000  10.1910000  -0.3050000   1.9140000
   9.8030000   0.6860000   2.1470000  11.2500000  -0.2430000   1.6640000
  10.2490000  -0.8680000   2.8450000   7.3090000  -0.1320000  -1.2380000
   7.9040000   0.6760000  -1.1270000   6.5300000  -0.1400000  -2.5230000
   5.5070000   0.0360000  -2.1890000   6.5440000  -1.4310000  -3.3370000
   5.5350000  -1.6830000  -4.0680000   6.7950000   1.0890000  -3.4630000
   7.7520000   0.9780000  -3.9730000   6.0210000   1.1600000  -4.2270000
   6.8980000   2.4490000  -2.8470000   7.1610000   2.7100000  -1.6230000
   6.8320000   3.3970000  -3.7000000   7.5170000  -2.2930000  -3.1280000
   8.1440000  -1.9970000  -2.3930000   7.5860000  -3.6700000  -3.7600000
   7.2460000  -3.6690000  -4.7960000   6.5550000  -4.4940000  -2.8910000
   5.6590000  -5.1590000  -3.3880000   9.0030000  -4.1980000  -3.6610000
   9.2590000  -4.0820000  -2.6080000   9.6020000  -3.5290000  -4.2790000
   9.1420000  -5.6560000  -4.0570000  10.0780000  -5.9130000  -3.5600000
   8.4250000  -6.2900000  -3.5370000   9.3370000  -5.8420000  -5.5380000
  10.4770000  -6.2370000  -5.8810000   8.5670000  -5.3260000  -6.3770000
   6.7520000  -4.5070000  -1.5620000   7.4560000  -3.8690000  -1.2210000
   6.0780000  -5.2750000  -0.5150000   6.0580000  -6.2870000  -0.9200000
   4.5530000  -4.8620000  -0.4730000   3.6520000  -5.7000000  -0.2710000
   6.7520000  -5.2000000   0.8280000   6.1180000  -5.7030000   1.5590000
   6.7510000  -4.1490000   1.1160000   8.1790000  -5.7530000   0.9140000
   8.1360000  -6.8280000   0.7390000   8.8720000  -5.1980000   0.2820000
   8.5110000  -5.4230000   2.3590000   8.9510000  -4.2590000   2.5560000
   8.4210000  -6.2880000   3.2440000   4.2240000  -3.6350000  -0.8950000
   4.9910000  -2.9980000  -1.0550000   2.8750000  -3.1730000  -1.0680000
   2.2900000  -3.3730000  -0.1710000   2.0940000  -3.8720000  -2.0770000
   0.8280000  -4.0550000  -1.8910000   2.8320000  -1.6600000  -1.3150000
   1.9040000  -1.2770000  -1.7400000   3.6330000  -1.4050000  -2.0090000
   3.0290000  -0.9230000   0.0370000   4.0410000  -0.9900000   0.4350000
   2.3110000  -1.4090000   0.6970000   2.5450000   0.7860000   0.0640000
   3.0420000   1.0230000   1.7520000   3.3200000   0.0620000   2.1850000
   2.2390000   1.5770000   2.2380000   3.8850000   1.7130000   1.7400000
   2.6910000  -4.1960000  -3.2080000   3.6700000  -3.9530000  -3.2590000
   2.0470000  -4.9290000  -4.2720000   0.9940000  -4.6580000  -4.3480000
   2.0930000  -6.3980000  -4.0240000   1.1900000  -7.1190000  -4.4360000
   2.5420000  -4.6110000  -5.7040000   3.6000000  -4.8020000  -5.8830000
   2.3370000  -3.1140000  -6.0000000   2.6880000  -2.9360000  -7.0170000
   3.1140000  -2.5870000  -5.4480000   1.7850000  -5.4190000  -6.8000000
   0.7260000  -5.1940000  -6.6740000   2.1740000  -5.0720000  -7.7570000
   1.9350000  -6.4930000  -6.6900000   0.9580000  -2.4520000  -5.7070000
   0.8010000  -1.5250000  -6.2580000   0.9680000  -2.2530000  -4.6350000
   0.1140000  -3.0610000  -6.0310000   3.0930000  -6.9920000  -3.2510000
   3.7950000  -6.4690000  -2.7460000   3.0460000  -8.4200000  -2.7800000
   2.8360000  -9.1400000  -3.5710000   1.8320000  -8.7610000  -1.9290000
   1.4690000  -9.9490000  -1.8450000   4.3600000  -8.8120000  -2.0160000
   4.1940000  -9.6930000  -1.3950000   4.6020000  -7.9710000  -1.3660000
   5.5730000  -9.0410000  -2.9430000   5.8410000  -8.0720000  -3.3640000
   6.3480000  -9.3300000  -2.2340000   5.4490000 -10.0020000  -4.1350000
   4.6610000  -9.5620000  -5.0210000   6.1000000 -11.0600000  -4.1800000
   1.0330000  -7.7990000  -1.5070000   1.3620000  -6.8760000  -1.7510000
  -0.2530000  -7.8580000  -0.6820000  -0.5190000  -8.9000000  -0.5010000
  -1.4720000  -7.1630000  -1.3310000  -2.4830000  -6.9450000  -0.6720000
  -0.0380000  -7.3400000   0.7300000  -1.0350000  -7.4750000   1.1480000
   0.8530000  -8.2580000   1.6130000   0.9460000  -7.7780000   2.5870000
   1.8790000  -8.3280000   1.2500000   0.4080000  -9.2230000   1.8570000
   0.3790000  -5.8380000   0.9310000  -0.2660000  -5.1160000   0.4290000
   1.4120000  -5.8030000   0.5840000   0.3230000  -5.5640000   1.9840000
  -1.3840000  -6.7810000  -2.5990000  -0.5240000  -6.9750000  -3.0900000
  -2.5600000  -6.3630000  -3.4500000  -3.4830000  -6.6200000  -2.9320000
  -2.7520000  -7.0070000  -4.7410000  -3.6710000  -6.6640000  -5.5030000
  -2.5850000  -4.8550000  -3.5200000  -3.4390000  -4.5600000  -4.1300000
  -1.3320000  -4.3410000  -4.0930000  -0.6690000  -4.3340000  -3.3990000
  -2.8210000  -4.1800000  -2.1540000  -2.5670000  -3.1240000  -2.2440000
  -3.8440000  -4.3600000  -1.8240000  -2.1040000  -4.5310000  -1.4120000
  -1.8510000  -7.9140000  -5.1500000  -1.0710000  -8.2020000  -4.5770000
  -1.7930000  -8.6400000  -6.4680000  -2.7710000  -8.8700000  -6.8910000
  -1.1210000  -9.9870000  -6.2330000  -1.3860000 -10.8770000  -7.0900000
  -0.9920000  -7.8650000  -7.4770000  -0.0720000  -7.5320000  -6.9960000
  -0.7190000  -8.5250000  -8.3000000  -1.6260000  -6.5920000  -8.0640000
  -2.6230000  -6.8330000  -8.4310000  -1.7650000  -5.8880000  -7.2430000
  -0.8090000  -6.0910000  -9.1920000  -0.5760000  -6.9750000  -9.7860000
   0.1220000  -5.6230000  -8.8710000  -1.6310000  -5.1100000  -9.9080000
  -2.6110000  -5.0430000  -9.6700000  -1.2430000  -4.2050000 -10.7750000
  -0.0540000  -3.9890000 -11.2270000   0.5700000  -4.7780000 -11.1330000
   0.1670000  -3.3010000 -11.9320000  -2.1680000  -3.3630000 -11.1440000
  -3.1190000  -3.3780000 -10.8030000  -1.9640000  -2.6820000 -11.8620000
  -0.2780000 -10.0300000  -5.2910000  -0.8830000  -4.0750000   0.5580000
  -1.8260000  -2.9840000   0.7310000  -2.9470000  -3.0450000  -0.0590000
  -2.8800000  -2.5500000  -1.3330000  -4.0370000  -2.5580000  -2.1940000
  -5.2030000  -3.1470000  -1.6840000  -6.3670000  -3.1810000  -2.5860000
  -6.7030000  -4.3260000  -3.0370000  -7.2880000  -2.0610000  -2.7950000
  -7.1310000  -1.3270000  -3.9790000  -7.9340000  -0.1830000  -4.1850000
  -8.7680000   0.2410000  -3.2000000  -8.8930000  -0.4320000  -1.9970000
  -8.1240000  -1.5900000  -1.7630000  -5.2490000  -3.6230000  -0.3800000
  -6.4580000  -4.1780000   0.0740000  -4.1210000  -3.5940000   0.4610000
  -0.5641560  -4.4438853   1.5440335  -1.3648215  -4.8910228  -0.0005291
  -0.0058242  -3.7163807  -0.0005291  -1.9298001  -2.1400022  -1.7058567
  -4.0062757  -2.1224186  -3.2036162  -6.3946695  -1.6366971  -4.7352441
  -7.8841209   0.3621908  -5.1390855  -9.3645137   1.1505181  -3.3641592
  -9.5885719  -0.0652515  -1.2277956  -8.1753148  -2.1138763  -0.7971219
  -6.5263708  -4.5269410   0.9979403  -4.1624383  -3.9881060   1.4871400
