
  315  0.0000000e+00
   6.4100000   4.1400000  -0.0900000   7.0900000   4.3200000  -0.8300000
   5.7200000   3.5200000  -0.4800000   6.8500000   3.7700000   0.7300000
   5.9900000   5.4800000   0.5100000   6.9100000   5.9300000   0.8800000
   5.1600000   5.1300000   1.7600000   4.5600000   4.0600000   1.8400000
   5.1900000   6.4300000  -0.4400000   4.3300000   5.8700000  -0.8100000
   4.7900000   7.3200000   0.0500000   5.9600000   6.9100000  -1.6700000
   7.1900000   6.5600000  -1.7100000   5.3600000   7.7000000  -2.4400000
   4.9400000   6.0400000   2.7500000   5.4500000   6.9200000   2.7000000
   3.9000000   5.9300000   3.8000000   4.1700000   5.0800000   4.4300000
   3.9100000   6.8700000   4.3600000   2.4600000   5.6700000   3.3300000
   2.0400000   6.1500000   2.2600000   1.6600000   5.0200000   4.1300000
   2.1400000   4.5400000   4.8700000   0.2400000   4.6800000   3.9400000
   0.0900000   4.2400000   2.9500000  -0.3300000   5.6000000   4.0700000
  -0.2000000   3.7000000   5.0700000   0.6300000   3.0000000   5.6700000
  -1.5300000   3.5800000   5.2500000  -2.1000000   4.2100000   4.7000000
  -2.2200000   2.4500000   6.0100000  -1.5800000   1.5800000   6.0600000
  -3.4100000   1.8800000   5.2600000  -4.1100000   2.6600000   4.5300000
  -2.5700000   2.9100000   7.4700000  -1.7200000   3.4400000   7.9100000
  -2.7100000   1.9900000   8.0400000  -3.8700000   3.6300000   7.6300000
  -4.7100000   3.1500000   7.1500000  -3.8400000   4.6100000   7.1500000
  -4.1400000   3.8500000   9.1000000  -4.5600000   2.9000000   9.7600000
  -4.1900000   5.0000000   9.5400000  -3.7200000   0.5900000   5.4700000
  -3.1500000   0.0900000   6.1400000  -4.8300000  -0.1800000   4.8700000
  -4.9600000  -1.0800000   5.4800000  -5.7700000   0.3900000   4.8900000
  -4.7000000  -0.5400000   3.4200000  -3.6300000  -0.6800000   2.9100000
  -5.8500000  -0.6600000   2.7400000  -6.7600000  -0.6400000   3.1800000
  -5.9300000  -0.5200000   1.2700000  -6.9800000  -0.6100000   0.9900000
  -5.8300000   0.5300000   0.9800000  -5.2000000  -1.4800000   0.4000000
  -5.2600000  -2.6900000   0.5600000  -4.6200000  -0.8300000  -0.6300000
  -4.5700000   0.1800000  -0.6100000  -3.8600000  -1.4300000  -1.7800000
  -3.6100000  -2.4800000  -1.6000000  -2.5900000  -0.6400000  -2.1500000
  -2.7100000   0.5800000  -2.3300000  -4.7600000  -1.4100000  -3.0300000
  -5.0000000  -0.3700000  -3.2500000  -6.1200000  -2.0900000  -2.7000000
  -6.6500000  -1.4500000  -1.9800000  -5.8400000  -2.9300000  -2.0700000
  -4.0200000  -2.0200000  -4.2300000  -3.2400000  -1.3800000  -4.6400000
  -4.6700000  -2.1500000  -5.1000000  -3.6600000  -3.0400000  -4.0700000
  -7.1300000  -2.6400000  -3.7600000  -7.9400000  -3.1000000  -3.1900000
  -7.6900000  -1.8400000  -4.2400000  -6.6700000  -3.4300000  -4.3600000
  -1.4500000  -1.2900000  -2.5000000  -1.5200000  -2.2900000  -2.5500000
  -0.2100000  -0.7600000  -3.0900000   0.2400000  -1.6100000  -3.6100000
  -0.4300000  -0.0200000  -3.8600000   0.7500000  -0.2100000  -1.9900000
   1.0900000  -0.9600000  -1.0100000   1.3600000   0.9700000  -2.2200000
   1.1400000   1.4800000  -3.0600000   2.1900000   1.6700000  -1.2500000
   1.6100000   1.7500000  -0.3300000   2.4400000   2.6700000  -1.6000000
   3.5000000   0.9400000  -0.8800000   3.8200000  -0.1300000  -1.3500000
   4.2600000   1.6200000  -0.0100000   3.9300000   2.5500000   0.1900000
   5.2700000   0.9500000   0.8900000   4.7700000   0.2100000   1.5100000
   5.6700000   1.6700000   1.6000000   6.5000000   0.2400000   0.3800000
   6.9200000   0.4000000  -0.7800000   7.1500000  -0.4300000   1.3200000
   6.6300000  -0.6100000   2.1700000   8.4100000  -1.1800000   1.0500000
   8.9700000  -0.7600000   0.2100000   8.0100000  -2.6600000   0.7900000
   8.0100000  -3.4500000   1.6900000   9.4700000  -1.1500000   2.1500000
   9.9500000  -0.1800000   2.2900000   8.9300000  -1.4700000   3.0400000
  10.5700000  -2.0300000   1.9500000  10.8500000  -2.2700000   2.8400000
   7.6300000  -2.9000000  -0.5100000   7.8700000  -2.1900000  -1.1800000
   7.2800000  -4.2200000  -1.0600000   7.7800000  -4.9400000  -0.4200000
   7.6900000  -4.3300000  -2.0700000   5.7700000  -4.3400000  -1.3000000
   5.2900000  -5.4400000  -1.6400000   5.0300000  -3.2600000  -1.1600000
   5.4300000  -2.4300000  -0.7500000   3.5500000  -3.2600000  -1.2000000
   3.2700000  -4.1100000  -1.8300000   3.0200000  -2.3700000  -1.5500000
   2.8600000  -3.6000000   0.1000000   2.1500000  -4.5700000   0.1600000
   2.9900000  -2.6400000   1.0100000   3.4700000  -1.8300000   0.6400000
   2.0800000  -2.4600000   2.1400000   1.1800000  -3.0400000   1.9400000
   1.6100000  -1.0400000   2.3600000   2.3500000  -0.1300000   2.0900000
   2.7900000  -3.1100000   3.3600000   2.2100000  -2.7800000   4.2300000
   3.7700000  -2.6600000   3.4000000   2.8500000  -4.6100000   3.4400000
   1.8500000  -5.4100000   3.8400000   0.8700000  -5.0900000   4.1800000
   3.9400000  -5.4300000   2.9800000   2.2800000  -6.7000000   3.7500000
   1.7400000  -7.5000000   4.0400000   3.4900000  -6.8400000   3.1400000
   5.1900000  -5.2000000   2.3100000   5.3700000  -4.2300000   1.8800000
   4.4400000  -7.8700000   3.0100000   4.2200000  -8.8800000   3.3100000
   6.0700000  -6.3100000   2.0400000   6.9500000  -6.1500000   1.4400000
   5.7100000  -7.6000000   2.4100000   6.3800000  -8.3900000   2.1100000
   0.3400000  -0.8500000   2.7200000  -0.2400000  -1.6600000   2.8800000
  -0.2600000   0.4300000   3.0000000  -0.9100000   0.4400000   3.8800000
   0.5200000   1.1500000   3.2400000  -0.9400000   1.0800000   1.8000000
  -0.4400000   1.0300000   0.6800000  -2.0600000   1.7300000   1.9600000
  -2.5100000   1.6900000   2.8700000  -2.8800000   2.1800000   0.8500000
  -3.0100000   1.3100000   0.2200000  -2.1600000   3.2900000  -0.0200000
  -1.3400000   4.0300000   0.5000000  -4.2000000   2.6900000   1.3400000
  -4.5800000   2.0300000   2.1200000  -3.8800000   3.5500000   1.9300000
  -5.1400000   3.1400000   0.2200000  -5.4900000   2.2800000  -0.5800000
  -5.6900000   4.2200000   0.2200000  -2.4800000   3.3600000  -1.3000000
  -2.9900000   2.5700000  -1.6600000  -1.8700000   4.3100000  -2.2500000
  -2.4100000   5.2500000  -2.1300000  -0.8200000   4.3000000  -1.9400000
  -2.2400000   3.8300000  -3.6200000  -3.4100000   3.4600000  -3.8400000
  -1.1900000   3.8000000  -4.4700000  -0.3700000   4.1800000  -4.0200000
  -1.2500000   3.0900000  -5.7300000  -2.1400000   2.4800000  -5.8200000
  -0.0800000   2.1000000  -5.8300000   1.0700000   2.2700000  -5.4200000
  -1.2000000   4.1200000  -6.9300000  -0.2000000   4.5500000  -7.0000000
  -1.4300000   3.4900000  -7.7900000  -2.2400000   5.2400000  -6.8100000
  -3.6000000   4.9100000  -6.9600000  -3.9000000   3.8900000  -7.1700000
  -1.9100000   6.5100000  -6.3600000  -0.9000000   6.7700000  -6.0700000
  -4.6000000   5.9300000  -6.6800000  -5.6000000   5.5200000  -6.5700000
  -2.8700000   7.5000000  -6.1800000  -2.5700000   8.5200000  -6.0100000
  -4.2200000   7.2200000  -6.2600000  -4.9800000   7.9400000  -6.0100000
  -0.3300000   1.0800000  -6.7000000  -1.2200000   1.1100000  -7.1600000
   0.5900000  -0.0100000  -7.1100000   1.5100000   0.2100000  -6.5700000
   0.9400000   0.0000000  -8.1400000   0.0600000  -1.3600000  -6.7000000
  -1.0500000  -1.5100000  -6.2400000   0.8300000  -2.4700000  -6.7800000
   1.7500000  -2.4100000  -7.1900000   0.5700000  -3.8300000  -6.2400000
   1.2700000  -4.4900000  -6.7400000  -0.4600000  -4.1600000  -6.3800000
   1.0000000  -3.8400000  -4.7200000   2.0500000  -3.3100000  -4.3600000
   0.2100000  -4.5300000  -3.9500000  -0.6100000  -4.8400000  -4.4600000
   0.3200000  -4.7400000  -2.5400000   0.5700000  -5.7800000  -2.3300000
   1.0500000  -4.1200000  -2.0200000  -1.0000000  -4.5500000  -1.7800000
  -1.9800000  -4.1000000  -2.3900000  -1.1300000  -5.0900000  -0.5800000
  -0.4000000  -5.6900000  -0.2200000  -2.3900000  -5.1100000   0.1600000
  -3.0300000  -4.2500000  -0.0600000  -2.2900000  -5.1600000   1.6600000
  -1.6300000  -5.9400000   2.2900000  -3.1800000  -6.3900000  -0.2900000
  -2.6400000  -7.3000000  -0.0200000  -4.0900000  -6.4900000   0.3000000
  -3.5600000  -6.6600000  -1.7200000  -2.7500000  -6.6600000  -2.4600000
  -4.6600000  -5.7200000  -2.1200000  -4.3400000  -4.6700000  -2.1000000
  -4.9500000  -5.9200000  -3.1500000  -5.4600000  -5.7800000  -1.3800000
  -4.0300000  -8.1300000  -1.9600000  -4.7700000  -8.3600000  -1.2000000
  -3.2200000  -8.8400000  -1.7800000  -4.3500000  -8.2200000  -3.0000000
  -3.1000000  -4.3600000   2.3100000  -3.7800000  -3.9000000   1.7300000
  -3.1300000  -4.1200000   3.6900000  -3.9600000  -3.4700000   3.9700000
  -3.3700000  -5.1000000   4.1100000  -1.7700000  -3.6300000   4.3100000
  -0.7800000  -3.2700000   3.6600000  -1.7500000  -3.6600000   5.6500000
  -2.6000000  -3.7900000   6.1700000  -0.6200000  -3.1700000   6.4600000
   0.3200000  -3.6100000   6.1400000  -0.6300000  -3.6100000   7.4600000
  -0.3600000  -1.6300000   6.5600000  -1.3200000  -0.8700000   6.5800000
   0.9300000  -1.3000000   6.7900000   1.6300000  -2.0200000   6.9300000
   1.5200000   0.0500000   6.8100000   0.7200000   0.7100000   6.4700000
   2.7100000   0.2100000   5.8500000   3.4700000  -0.7000000   5.5900000
   1.8000000   0.5600000   8.2700000   2.2800000   1.5300000   8.1200000
   2.5200000  -0.1600000   8.6500000   0.6500000   0.7000000   9.2500000
   0.0400000   1.9700000   9.5000000   0.5000000   2.8900000   9.1700000
   0.0700000  -0.4700000   9.7600000   0.5300000  -1.4100000   9.4800000
  -1.1500000   2.0300000  10.2700000  -1.7400000   2.9300000  10.3400000
  -1.1700000  -0.4600000  10.4500000  -1.6800000  -1.3800000  10.7000000
  -1.7300000   0.8200000  10.7300000  -2.9800000   0.9100000  11.2200000
  -3.4700000   1.6200000  10.8000000   2.8200000   1.4400000   5.2700000
   2.0100000   2.0200000   5.4500000   3.8300000   1.8100000   4.3000000
   4.1700000   0.8800000   3.8400000   3.4100000   2.4300000   3.5100000
   5.0400000   2.4400000   4.9200000   5.0300000   2.6700000   6.1600000
   6.0100000   2.8900000   4.1300000   5.8900000   2.8100000   3.1300000
   7.2900000   3.5000000   4.5300000   7.1100000   4.1200000   5.4100000
   7.6900000   4.4300000   3.4400000   7.9700000   5.5500000   3.7900000
   8.4100000   2.5200000   4.8400000   9.3600000   3.0500000   4.8200000
   8.4200000   1.7000000   4.1200000   8.1400000   2.1200000   6.1300000
   7.7300000   1.2600000   6.0900000   7.7800000   3.9700000   2.2800000
  -2.7420000   1.1970000 -12.3970000  -3.8850000   0.4620000 -11.9740000
  -3.9490000   0.2210000 -10.6280000  -5.0940000   0.5470000  -9.9740000
  -5.1900000   0.3170000  -8.6140000  -4.1630000  -0.2400000  -7.9210000
  -4.2100000  -0.4820000  -6.4580000  -3.2490000  -1.0340000  -5.8950000
  -5.3320000  -0.0610000  -5.5970000  -5.3950000   1.2480000  -5.1320000
  -6.4340000   1.6360000  -4.3120000  -7.4000000   0.7210000  -3.9130000
  -7.3090000  -0.6100000  -4.3550000  -6.2660000  -1.0040000  -5.1720000
  -2.9640000  -0.5980000  -8.6200000  -1.9630000  -1.1480000  -7.9320000
  -2.8880000  -0.3510000  -9.9770000  -2.1882761   1.5530692 -11.5157483
  -2.0913786   0.5475652 -13.0010913  -3.0629365   2.0584369 -13.0010913
  -5.9383143   0.9905383 -10.5220941  -6.1143617   0.5898902  -8.0838243
  -4.6179883   1.9724020  -5.4174724  -6.4982517   2.6797735  -3.9708129
  -8.2266975   1.0345813  -3.2586011  -8.0713999  -1.3416493  -4.0493275
  -6.1738096  -2.0546188  -5.4845716  -1.1257487  -1.4030077  -8.3946893
  -1.9765729  -0.6133102 -10.5342199
