
  421  0.0000000e+00
  -6.5650000   1.6090000   6.7470000  -7.4310000   1.6300000   6.2270000
  -6.8190000   1.6800000   7.7220000  -5.9340000   2.3070000   6.3790000
  -6.0160000   0.1910000   6.6890000  -6.6450000  -0.5150000   7.2310000
  -4.5400000   0.1920000   7.1340000  -3.7580000   1.0300000   6.7500000
  -6.1380000  -0.2850000   5.2160000  -5.4220000   0.2110000   4.5610000
  -5.9510000  -1.3590000   5.1930000  -7.5820000  -0.0030000   4.6830000
  -8.6670000  -0.9080000   4.7230000  -8.5180000  -1.8690000   5.1940000
  -7.7650000   1.2190000   3.9980000  -6.9240000   1.8130000   3.6730000
  -9.8240000  -0.6490000   4.0530000 -10.6620000  -1.3210000   4.1630000
  -8.9340000   1.5270000   3.3530000  -9.0960000   2.3630000   2.6890000
 -10.0010000   0.6010000   3.4270000 -11.1790000   0.7780000   2.7420000
 -11.0120000   1.1770000   1.8850000  -4.1430000  -0.7840000   8.0020000
  -4.7390000  -1.5530000   8.2740000  -2.7540000  -0.9320000   8.5400000
  -2.8590000  -1.6100000   9.3870000  -2.0550000  -1.3350000   7.8070000
  -2.2150000   0.3260000   9.0970000  -1.0370000   0.6460000   9.0130000
  -3.1030000   1.1170000   9.8220000  -4.0730000   0.8360000   9.8070000
  -2.8210000   2.3350000  10.4640000  -2.0280000   2.1440000  11.1870000
  -3.7010000   2.7750000  10.9320000  -2.2570000   3.3610000   9.5100000
  -2.8400000   3.7100000   8.4590000  -1.1130000   3.9640000   9.9020000
  -0.6150000   3.7380000  10.7510000  -0.5240000   5.0340000   9.0830000
  -1.3030000   5.7230000   8.7540000   0.0330000   4.5050000   7.7980000
   0.3280000   5.3650000   6.9560000   0.6590000   5.6660000   9.8180000
   1.0500000   6.4700000   9.1950000   0.3690000   6.0100000  10.8110000
   1.8120000   4.7810000  10.2210000   2.7210000   5.2690000  10.8890000
   2.0120000   3.6090000   9.8710000   0.2500000   3.1970000   7.6310000
  -0.1720000   2.5500000   8.2810000   1.0630000   2.6250000   6.5610000
   2.0300000   3.1270000   6.5330000   1.2990000   1.5780000   6.7540000
   0.4660000   2.6590000   5.1630000   1.1730000   2.7970000   4.2030000
  -0.8460000   2.7020000   5.0270000  -1.3100000   2.3900000   5.8680000
  -1.5580000   2.9650000   3.7250000  -1.3210000   2.1370000   3.0560000
  -1.1830000   4.2820000   3.0160000  -1.5030000   4.4680000   1.8290000
  -3.0990000   2.8490000   3.8660000  -3.3440000   1.8830000   4.3060000
  -3.2520000   3.5500000   4.6860000  -4.0920000   3.1530000   2.7220000
  -3.8970000   2.6860000   1.4560000  -2.9590000   2.2070000   1.2180000
  -5.1860000   3.9080000   3.0220000  -5.2960000   4.3980000   3.9790000
  -4.8050000   3.0010000   0.4350000  -4.5790000   2.5910000  -0.5380000
  -6.1840000   4.1990000   2.0030000  -6.9270000   4.9430000   2.2510000
  -6.0480000   3.6510000   0.7060000  -6.7430000   4.0040000  -0.0420000
  -0.5230000   5.2130000   3.7110000  -0.1570000   4.9740000   4.6210000
  -0.2390000   6.6090000   3.3310000  -0.1160000   7.1970000   4.2410000
  -1.0430000   7.0170000   2.7180000   1.0370000   6.6760000   2.5180000
   1.0340000   6.8010000   1.3280000   2.2220000   6.3760000   3.1030000
   2.3190000   6.3630000   4.1080000   3.4390000   6.0480000   2.3550000
   3.6700000   6.9610000   1.8050000   3.3860000   4.8530000   1.3950000
   4.1110000   4.9490000   0.3570000   4.5760000   5.9190000   3.3980000
   4.6600000   6.7890000   4.0500000   4.2500000   5.0840000   4.0180000
   5.9510000   5.7260000   2.8290000   5.8450000   4.8330000   2.2130000
   6.3450000   6.4910000   2.1590000   6.8190000   5.4190000   4.0220000
   6.9110000   6.2990000   4.6580000   6.4580000   4.5720000   4.6060000
   8.2680000   5.1980000   3.6830000   8.3480000   4.3250000   3.0340000
   8.6100000   6.0740000   3.1330000   9.1010000   5.0610000   4.9660000
  10.0760000   4.9880000   4.7130000   8.8700000   4.2000000   5.4410000
   9.1330000   5.8390000   5.6090000   2.7050000   3.7720000   1.7560000
   2.1530000   3.6550000   2.5940000   2.6040000   2.5330000   1.0060000
   3.5670000   2.1280000   0.6950000   2.4920000   1.7790000   1.7850000
   1.4830000   2.2740000  -0.0000000   1.6060000   1.4160000  -0.8430000
   0.4990000   3.1280000  -0.0270000   0.3790000   3.7450000   0.7640000
  -0.5600000   3.2720000  -0.9900000  -0.4360000   2.3900000  -1.6190000
  -1.5580000   3.1470000  -0.5680000  -0.5740000   4.5600000  -1.8250000
  -1.3130000   4.4930000  -2.7800000   0.0850000   5.6790000  -1.5760000
   0.7240000   5.7200000  -0.7950000   0.1400000   6.7660000  -2.6430000
  -0.8420000   7.1730000  -2.8810000   0.7790000   7.5210000  -2.1860000
   1.0470000   6.3470000  -3.8410000   2.2570000   6.0660000  -3.6170000
   0.6650000   6.5240000  -5.0580000  -0.2800000   6.8620000  -5.1720000
   1.4140000   5.9430000  -6.2150000   1.5740000   4.8790000  -6.0380000
   2.7450000   6.5550000  -6.6910000   3.0590000   6.4550000  -7.8840000
   0.4640000   5.8280000  -7.4180000   0.8990000   5.2660000  -8.2440000
   0.3890000   6.8330000  -7.8320000  -0.9490000   5.2750000  -7.1330000
  -1.4040000   5.8190000  -6.3050000  -1.7760000   5.5670000  -8.3740000
  -1.5550000   6.5130000  -8.8670000  -1.3350000   4.8490000  -9.0660000
  -2.8350000   5.4370000  -8.1510000  -1.0030000   3.7790000  -6.8840000
  -2.0270000   3.5400000  -6.5980000  -0.2920000   3.5530000  -6.0900000
  -0.7320000   3.1960000  -7.7630000   3.5410000   7.1190000  -5.8040000
   3.2130000   6.8740000  -4.8810000   4.7560000   8.0020000  -6.1410000
   4.4270000   8.4520000  -7.0780000   4.8070000   8.8000000  -5.4000000
   6.0300000   7.2120000  -6.3870000   7.1470000   7.7970000  -6.3510000
   5.9330000   5.8840000  -6.6710000   5.0450000   5.4570000  -6.8960000
   7.1080000   5.0130000  -6.8180000   6.7420000   4.0680000  -7.2190000
   7.7860000   5.5960000  -7.4410000   7.8470000   4.5050000  -5.5630000
   7.5310000   4.9080000  -4.4520000   8.7640000   3.5370000  -5.6310000
   8.8590000   3.0690000  -6.5210000   9.5560000   3.0230000  -4.4740000
   8.9310000   3.1110000  -3.5850000  10.4070000   3.6990000  -4.3940000
  10.0300000   1.5540000  -4.7490000  10.8030000   1.2460000  -5.6750000
   9.3810000   0.6270000  -4.0010000   8.8160000   0.9330000  -3.2210000
   9.4120000  -0.7950000  -4.0890000   9.8200000  -1.2050000  -5.0130000
   7.9240000  -1.2720000  -3.8960000   7.1450000  -0.7150000  -3.1460000
  10.2670000  -1.2900000  -2.9600000   9.7330000  -1.0830000  -2.0320000
  11.1490000  -0.6500000  -2.9470000  10.6280000  -2.7630000  -2.9330000
   9.7400000  -3.3750000  -2.7770000  11.1860000  -2.9450000  -3.8510000
  11.5870000  -2.9040000  -1.7530000  12.3890000  -2.1750000  -1.8670000
  12.1350000  -3.8450000  -1.7070000  10.8320000  -2.6750000  -0.4060000
  10.0370000  -3.4170000  -0.3330000  10.4470000  -1.6600000  -0.3080000
  11.7050000  -2.7850000   0.7590000  11.8080000  -3.7540000   1.0230000
  12.5640000  -2.2540000   0.7170000  11.3150000  -2.3520000   1.5840000
   7.6530000  -2.3780000  -4.5370000   8.3820000  -2.8080000  -5.0880000
   6.5280000  -3.1510000  -4.1150000   6.7030000  -4.2130000  -4.2860000
   6.3230000  -2.9760000  -3.0590000   5.3260000  -2.9830000  -5.0020000
   5.2890000  -2.0480000  -5.7980000   4.2880000  -3.8480000  -4.8220000
   4.4170000  -4.6710000  -4.2510000   2.9270000  -3.8960000  -5.4900000
   2.9280000  -3.8030000  -6.5760000   2.3310000  -3.0230000  -5.2210000
   2.1350000  -5.1200000  -5.0140000   2.3910000  -5.8370000  -4.0230000
   1.1340000  -5.4940000  -5.8010000   0.7130000  -4.8130000  -6.4170000
   0.2320000  -6.6330000  -5.7530000   0.7930000  -7.5490000  -5.5650000
  -0.2180000  -6.6950000  -6.7430000  -0.8530000  -6.4410000  -4.6720000
  -1.2520000  -7.5220000  -4.2720000  -1.1000000  -5.2470000  -4.0980000
  -0.4600000  -4.5340000  -4.4180000  -2.0950000  -4.7970000  -3.0360000
  -2.3540000  -5.6720000  -2.4400000  -1.6830000  -4.0720000  -2.3340000
  -3.4740000  -4.3780000  -3.5890000  -3.6540000  -4.3020000  -4.8320000
  -4.5660000  -4.2190000  -2.8060000  -4.4080000  -4.3490000  -1.8170000
  -5.9380000  -4.2770000  -3.3550000  -6.0520000  -5.2490000  -3.8350000
  -6.3240000  -3.3360000  -4.5720000  -6.6140000  -2.1690000  -4.4200000
  -6.8990000  -4.3390000  -2.1640000  -6.7660000  -3.3420000  -1.7430000
  -6.7610000  -5.1450000  -1.4430000  -8.3760000  -4.4430000  -2.4780000
  -8.7080000  -3.5360000  -2.9830000  -8.9030000  -5.7010000  -3.2630000
  -8.5720000  -5.8680000  -4.2890000  -8.5740000  -6.5930000  -2.7290000
  -9.9900000  -5.7620000  -3.2100000  -9.2790000  -4.3570000  -1.2800000
  -8.9020000  -3.5190000  -0.6940000 -10.2440000  -4.1560000  -1.7450000
  -9.2750000  -5.3030000  -0.7380000  -6.4710000  -4.0260000  -5.7410000
  -6.3500000  -5.0260000  -5.8120000  -6.8780000  -3.3370000  -6.9960000
  -7.0280000  -4.0870000  -7.7720000  -7.8320000  -2.8140000  -6.9240000
  -5.7460000  -2.4420000  -7.5740000  -6.0520000  -1.5670000  -8.3700000
  -4.5180000  -2.6830000  -7.1450000  -4.3710000  -3.2710000  -6.3370000
  -3.3740000  -2.0300000  -7.8100000  -3.6690000  -1.6440000  -8.7860000
  -2.5940000  -2.7890000  -7.8670000  -2.7720000  -0.8500000  -7.0700000
  -1.9250000  -0.2160000  -7.6440000  -3.2490000  -0.4710000  -5.8740000
  -3.9070000  -1.0230000  -5.3430000  -2.4390000   0.3320000  -4.9970000
  -2.3520000   1.3380000  -5.4080000  -0.9940000  -0.0460000  -4.7090000
  -0.6800000  -1.2330000  -4.6910000  -3.0840000   0.5310000  -3.5880000
  -3.2000000  -0.4050000  -3.0410000  -2.4560000   1.1900000  -2.9880000
  -4.4400000   1.2530000  -3.5990000  -5.6240000   0.6790000  -3.3200000
  -5.8110000  -0.3530000  -3.0600000  -4.7630000   2.5740000  -4.1100000
  -6.6690000   1.5690000  -3.4350000  -7.6090000   1.2010000  -3.4750000
  -6.1960000   2.7540000  -3.9780000  -3.9800000   3.6810000  -4.5950000
  -2.9050000   3.5920000  -4.5410000  -6.8520000   3.9270000  -4.4190000
  -7.9310000   3.9630000  -4.4230000  -4.6320000   4.7620000  -5.1070000
  -3.9880000   5.4990000  -5.5620000  -6.0040000   4.9180000  -4.9880000
  -6.5030000   5.8030000  -5.3560000  -0.0960000   0.9410000  -4.4490000
  -0.3650000   1.9120000  -4.5130000   1.3740000   0.7640000  -4.1790000
   1.7700000   0.3030000  -5.0830000   1.4140000   0.0490000  -3.3570000
   2.1040000   2.0870000  -3.8310000   1.4110000   3.1250000  -3.8120000
   3.4340000   2.1070000  -3.5760000   3.9660000   1.2530000  -3.6650000
   4.0880000   3.2850000  -2.9270000   3.4730000   3.9870000  -2.3640000
   4.4330000   3.9610000  -3.7090000   5.3160000   2.8130000  -2.1760000
   5.8370000   1.7820000  -2.6240000   5.9900000   3.5200000  -1.2250000
   5.4130000   4.1190000  -0.6520000   7.2390000   2.9430000  -0.6940000
   7.7670000   2.6010000  -1.5830000   6.9670000   1.7280000   0.2050000
   5.8460000   1.6350000   0.6620000   8.1850000   3.9610000  -0.0340000
   9.0910000   3.5060000   0.3650000   7.7120000   4.5620000   0.7440000
   8.7100000   4.9690000  -1.0500000   9.1370000   4.4760000  -1.9230000
   7.9340000   5.6620000  -1.3740000   9.7460000   5.9410000  -0.4110000
   9.7000000   6.1170000   0.8010000  10.5340000   6.5360000  -1.1820000
   7.8720000   0.7930000   0.3640000   8.7410000   0.9850000  -0.1120000
   7.6250000  -0.3460000   1.2260000   7.3550000  -0.0040000   2.2250000
   8.5650000  -0.8750000   1.3870000   6.5040000  -1.2860000   0.8370000
   6.0600000  -2.1450000   1.6440000   6.0530000  -1.2180000  -0.4150000
   6.4670000  -0.5340000  -1.0310000   4.6030000  -1.4480000  -0.6660000
   4.0960000  -1.2560000   0.2800000   4.2120000  -2.9420000  -0.9730000
   5.1380000  -3.6990000  -1.1960000   3.9990000  -0.5350000  -1.6570000
   4.2370000   0.5040000  -1.4270000   2.9130000  -0.6050000  -1.5860000
   4.3830000  -0.9160000  -2.9700000   5.2930000  -0.6430000  -3.1080000
   2.9050000  -3.2260000  -0.9050000   2.3250000  -2.5650000  -0.4060000
   2.4020000  -4.5640000  -1.1920000   1.6270000  -4.4040000  -1.9420000
   3.1860000  -5.2030000  -1.5970000   1.7080000  -5.2680000  -0.0230000
   1.2800000  -4.6630000   0.9540000   1.6760000  -6.6280000  -0.0940000
   1.9540000  -7.0630000  -0.9620000   1.1110000  -7.3760000   0.9880000
   1.5140000  -6.9920000   1.9250000   1.3550000  -8.4120000   0.7530000
  -0.4150000  -7.2750000   1.2790000  -1.0940000  -8.2680000   1.2980000
  -0.9980000  -6.0270000   1.4400000  -0.4350000  -5.1900000   1.3860000
  -2.3820000  -5.8970000   1.8080000  -2.3910000  -6.6200000   2.6250000
  -3.4030000  -6.2220000   0.7440000  -3.3690000  -5.6410000  -0.3130000
  -2.5710000  -4.4400000   2.3370000  -3.6200000  -4.1680000   2.4560000
  -2.1230000  -3.8350000   1.5490000  -1.8760000  -4.1860000   3.6610000
  -0.5350000  -3.9500000   3.8040000   0.1860000  -3.8610000   3.0050000
  -2.3950000  -4.3430000   5.0300000  -0.2430000  -3.8620000   5.0990000
   0.6990000  -3.6290000   5.3790000  -1.3090000  -4.1000000   5.9450000
  -3.6970000  -4.3730000   5.5670000  -4.6170000  -4.3880000   5.0000000
  -1.4950000  -4.1770000   7.3110000  -0.6820000  -3.9290000   7.9780000
  -3.8490000  -4.3970000   6.9580000  -4.8300000  -4.4180000   7.4080000
  -2.7630000  -4.3320000   7.8290000  -3.0010000  -4.3530000   8.8830000
  -4.2710000  -7.2290000   1.0270000  -4.1980000  -7.6270000   1.9520000
  -5.4570000  -7.6560000   0.2410000  -5.7380000  -6.8530000  -0.4410000
  -6.2950000  -7.9360000   0.8800000  -5.1380000  -8.9460000  -0.5010000
  -5.5110000  -9.0990000  -1.6720000  -4.3300000  -9.7980000   0.1180000
  -4.1900000  -9.5810000   1.0940000  -3.6520000 -10.9200000  -0.5510000
  -4.4940000 -11.4800000  -0.9580000  -2.9800000 -11.9090000   0.3900000
  -2.9720000 -11.7340000   1.6320000  -2.5760000 -10.4300000  -1.5840000
  -3.0750000  -9.6680000  -2.1830000  -2.2640000 -11.1850000  -2.3050000
  -1.3910000  -9.8510000  -0.9690000  -1.8180000  -9.4500000  -0.2090000
  -2.5280000 -13.0060000  -0.0810000  -7.5240000  -4.4420000   4.2970000
  -7.8180000  -3.5170000   3.1360000  -6.5720000  -3.1960000   2.3510000
  -6.8400000  -2.3090000   1.1800000  -5.6820000  -1.4080000   0.7810000
  -5.9070000  -0.8600000  -0.6160000  -7.2600000  -0.1840000  -0.8080000
  -4.5270000  -2.0420000   0.8410000  -3.5670000  -2.7930000   0.6200000
  -3.6080000  -3.5010000  -0.3530000  -2.4560000  -2.7870000   1.6000000
  -1.3970000  -3.5820000   1.4700000  -0.3030000  -3.6910000   2.4680000
   0.5770000  -4.7580000   2.3950000   1.5600000  -4.9300000   3.3630000
   1.7180000  -4.0100000   4.3790000   2.6900000  -4.1310000   5.3510000
   3.0940000  -5.4370000   5.7180000   0.8790000  -2.9280000   4.4170000
  -0.1290000  -2.7680000   3.4670000  -7.6938000  -3.9078000   5.2435000
  -8.1882000  -5.3173000   4.2457000  -6.4763000  -4.7732000   4.2457000
  -8.5450000  -4.0025000   2.4684000  -8.2212000  -2.5766000   3.5398000
  -5.8565000  -2.6921000   3.0174000  -6.1701000  -4.1440000   1.9641000
  -7.0896000  -2.9462000   0.3188000  -7.6610000  -1.6414000   1.4803000
  -5.6420000  -0.5747000   1.4980000  -5.1189000  -0.1228000  -0.8291000
  -5.8810000  -1.7193000  -1.3023000  -7.7022000   0.0369000   0.1747000
  -7.1256000   0.7528000  -1.3686000  -7.9284000  -0.8541000  -1.3686000
  -2.5081000  -2.1046000   2.4612000  -1.3273000  -4.1998000   0.5625000
   0.4975000  -5.4750000   1.5646000   2.2192000  -5.8095000   3.3184000
   3.1192000  -5.5184000   6.8147000   2.3804000  -6.1692000   5.3123000
   4.0964000  -5.6383000   5.3123000   1.0022000  -2.1742000   5.2086000
  -0.7919000  -1.8917000   3.5195000
