
  371  0.0000000e+00
   5.5700000  -3.5900000  -9.0000000   6.1400000  -4.3600000  -8.6700000
   4.9600000  -3.8900000  -9.7400000   6.2600000  -2.9500000  -9.3600000
   4.7500000  -3.0900000  -7.8900000   3.9600000  -3.8200000  -7.7700000
   4.0300000  -1.7900000  -8.2900000   4.6700000  -0.9800000  -8.9500000
   5.5400000  -2.8700000  -6.5600000   4.8000000  -2.4900000  -5.8600000
   6.3100000  -2.1100000  -6.6700000   6.1700000  -4.1500000  -5.9800000
   6.8600000  -3.9700000  -5.1600000   6.8200000  -4.6400000  -6.7100000
   5.1600000  -5.0700000  -5.4800000   4.5200000  -5.4200000  -6.2900000
   5.6300000  -5.9800000  -5.1100000   4.2800000  -4.5900000  -4.3900000
   3.3100000  -4.5500000  -4.6500000   4.5300000  -4.6500000  -3.1600000
   5.6700000  -4.8000000  -2.6700000   5.8400000  -4.6900000  -1.6800000
   6.3900000  -5.1600000  -3.2900000   3.5900000  -4.3600000  -2.2500000
   3.8500000  -4.3100000  -1.2700000   2.6300000  -4.5000000  -2.5100000
   2.7800000  -1.6400000  -7.8300000   2.3900000  -2.3700000  -7.2600000
   1.9800000  -0.4400000  -7.9200000   0.9100000  -0.6300000  -8.0600000
   2.3700000   0.1800000  -8.7300000   2.2000000   0.4700000  -6.7100000
   2.9100000   0.2300000  -5.7200000   1.5800000   1.6000000  -6.8200000
   1.2800000   1.8600000  -7.7500000   1.7000000   2.7000000  -5.8200000
   2.7200000   2.7800000  -5.4300000   0.8100000   2.4100000  -4.5300000
  -0.4200000   2.4500000  -4.6100000   1.5400000   4.0700000  -6.4300000
   0.6400000   3.9400000  -7.0300000   2.3500000   4.2400000  -7.1400000
   1.4000000   5.2600000  -5.4500000   0.6600000   4.9200000  -4.7100000
   2.3300000   5.5000000  -4.9500000   0.7200000   6.4300000  -6.2300000
   1.1800000   7.6200000  -6.0800000  -0.3200000   6.2400000  -6.8800000
   1.5100000   2.0600000  -3.4500000   2.5200000   2.0800000  -3.4900000
   0.9300000   2.2100000  -2.0800000  -0.1000000   1.8700000  -2.0400000
   1.6200000   1.7100000  -1.4000000   0.8800000   3.5900000  -1.5400000
   1.5300000   4.5000000  -2.1000000   0.3000000   3.8000000  -0.3500000
  -0.1200000   2.9800000   0.0700000  -0.1400000   5.0800000   0.2700000
  -0.3300000   5.9500000  -0.3600000  -1.1200000   4.8400000   0.6900000
   0.6900000   5.5300000   1.4400000   1.5300000   4.7500000   1.8700000
   0.5500000   6.8300000   1.7500000  -0.1200000   7.3600000   1.2200000
   1.2400000   7.4200000   2.9400000   2.2300000   6.9800000   3.0900000
   0.4500000   7.0000000   4.2300000  -0.3900000   7.7100000   4.7600000
   1.4100000   8.9100000   2.8000000   1.6100000   9.3500000   3.7800000
   0.4500000   9.3100000   2.4700000   2.4700000   9.4000000   1.8000000
   2.3100000   8.9400000   0.8200000   2.4700000  10.9500000   1.5200000
   2.6600000  11.5600000   2.4000000   3.2600000  11.1700000   0.8000000
   1.5100000  11.2300000   1.0700000   3.8400000   9.1000000   2.1400000
   3.9700000   9.5800000   3.1000000   4.4400000   9.5400000   1.3400000
   4.0000000   8.0200000   2.1400000   0.7900000   5.8000000   4.6900000
   1.5400000   5.3400000   4.1900000   0.4900000   5.4300000   6.1000000
   1.0600000   4.5500000   6.4100000   0.7800000   6.3400000   6.6300000
  -1.0100000   5.2100000   6.4400000  -1.3000000   5.1500000   7.6100000
  -1.9500000   5.1000000   5.5000000  -1.6800000   5.2600000   4.5400000
  -3.3900000   5.0600000   5.7800000  -3.6800000   6.0000000   6.2400000
  -3.9200000   3.8800000   6.6600000  -4.9400000   4.0300000   7.2800000
  -4.2100000   5.0700000   4.4800000  -5.2600000   5.2600000   4.7000000
  -4.1100000   4.0800000   4.0200000  -3.6800000   6.1600000   3.5400000
  -4.2500000   7.3100000   3.4200000  -2.6400000   5.8600000   2.9000000
  -3.1300000   2.7700000   6.6700000  -2.3100000   2.6600000   6.1000000
  -3.4400000   1.5200000   7.4100000  -2.4800000   1.0500000   7.6400000
  -3.6700000   1.8300000   8.4300000  -4.4300000   0.5400000   6.9000000
  -4.7300000   0.4400000   5.6800000  -4.8900000  -0.2700000   7.8100000
  -4.6500000  -0.0500000   8.7600000  -5.8400000  -1.2800000   7.5900000
  -6.6800000  -0.8200000   7.0700000  -6.2300000  -1.7300000   8.5000000
  -5.2900000  -2.3500000   6.6300000  -4.1000000  -2.7300000   6.5900000
  -6.2900000  -2.8100000   5.8600000  -7.2300000  -2.4700000   5.9600000
  -6.1200000  -3.6900000   4.7200000  -5.2900000  -4.3400000   5.0000000
  -5.6700000  -3.0400000   3.4200000  -6.2800000  -3.3100000   2.4000000
  -7.3000000  -4.7000000   4.6100000  -8.0800000  -4.1600000   4.0800000
  -7.0300000  -5.5400000   3.9700000  -7.8100000  -5.3100000   5.9200000
  -7.1900000  -6.4100000   6.4800000  -6.2700000  -6.8000000   6.0700000
  -8.9600000  -4.8300000   6.5400000  -9.4000000  -4.0000000   6.0100000
  -7.6400000  -7.0800000   7.6600000  -7.1100000  -7.9200000   8.0600000
  -9.4400000  -5.4100000   7.7200000 -10.2900000  -4.9700000   8.2300000
  -8.8100000  -6.5300000   8.2900000  -9.2600000  -7.1400000   9.4400000
 -10.1900000  -6.9400000   9.5800000  -4.6100000  -2.2500000   3.4500000
  -4.2600000  -2.0800000   4.3800000  -4.0900000  -1.4200000   2.3300000
  -4.8900000  -0.7300000   2.0400000  -3.8100000  -2.0300000   1.4600000
  -2.8100000  -0.6100000   2.6500000  -1.7500000  -1.1400000   2.9900000
  -2.8300000   0.6800000   2.4200000  -3.6900000   1.1100000   2.1000000
  -1.6500000   1.6200000   2.3900000  -1.9400000   2.6400000   2.1600000
  -0.9800000   1.2900000   1.5900000  -0.7600000   1.6400000   3.7100000
  -1.1900000   1.5000000   4.8500000   0.5300000   1.9400000   3.5200000
   0.8900000   2.1700000   2.6100000   1.5600000   1.9300000   4.5600000
   1.4100000   2.8000000   5.1900000   1.5500000   0.9400000   5.0200000
   2.8800000   2.0500000   4.0000000   3.0700000   1.8500000   2.8000000
   3.8000000   2.5900000   4.7100000   3.6700000   2.6300000   5.7100000
   4.9400000   3.2800000   4.2300000   5.5500000   3.5900000   5.0800000
   5.5300000   2.5800000   3.6300000   4.7300000   4.4700000   3.3000000
   4.1600000   5.4900000   3.6200000   5.2500000   4.3100000   2.0900000
   5.6500000   3.4200000   1.8300000   5.1900000   5.3600000   1.0400000
   4.1500000   5.6700000   1.0900000   5.4900000   4.7300000  -0.3000000
   6.2600000   3.7900000  -0.3800000   6.1200000   6.4800000   1.4300000
   5.9300000   6.9500000   2.4000000   7.1600000   6.1400000   1.4200000
   5.8700000   7.4600000   0.4400000   6.3800000   8.2600000   0.6100000
   5.0300000   5.3400000  -1.4100000   4.3300000   6.0700000  -1.3200000
   5.4100000   5.0900000  -2.7800000   6.3900000   5.5300000  -2.9600000
   4.7400000   5.7000000  -3.3900000   5.2700000   3.6700000  -3.3600000
   4.5200000   2.8400000  -2.8100000   5.9900000   3.4400000  -4.4400000
   6.7000000   4.1100000  -4.6800000   6.0800000   2.1500000  -5.1000000
   5.2000000   1.9400000  -5.7100000   6.3500000   1.0900000  -4.0100000
   7.2600000   1.2100000  -3.2000000   7.2100000   2.1300000  -6.1200000
   8.1400000   2.1100000  -5.5600000   7.1400000   1.2300000  -6.7300000
   7.0900000   3.2200000  -7.1800000   7.8900000   4.3100000  -7.4400000
   8.8500000   4.5600000  -7.0000000   6.1000000   3.2600000  -8.2400000
   7.4900000   4.9400000  -8.6100000   8.0900000   5.6300000  -9.0300000
   6.3900000   4.3100000  -9.1700000   4.9900000   2.4300000  -8.6200000
   4.7100000   1.6500000  -7.9200000   5.6700000   4.5600000 -10.3400000
   5.7900000   5.4600000 -10.9200000   4.3200000   2.6100000  -9.8900000
   3.6400000   1.8600000 -10.2700000   4.7100000   3.6700000 -10.7500000
   4.1700000   3.8500000 -11.6600000   5.4900000   0.0700000  -3.9200000
   4.6700000   0.1200000  -4.5100000   5.6200000  -1.1000000  -3.0600000
   4.8900000  -1.7900000  -3.4700000   6.6300000  -1.5100000  -3.0300000
   5.2100000  -0.8000000  -1.6200000   5.4400000  -1.6300000  -0.7800000
   4.6900000   0.3500000  -1.2400000   4.6300000   1.1500000  -1.8600000
   4.1000000   0.4900000   0.0600000   4.7800000   0.0900000   0.8100000
   3.9200000   1.5100000   0.3900000   2.7300000  -0.2300000   0.1300000
   2.0700000  -0.5700000  -0.8200000   2.2300000  -0.4200000   1.3100000
   2.7200000   0.0500000   2.0600000   0.9600000  -1.1300000   1.5400000
   0.7700000  -0.9300000   2.6000000   0.1200000  -0.7400000   0.9700000
   0.9800000  -2.6300000   1.4100000   1.9100000  -3.2100000   0.7900000
  -0.1200000  -3.2100000   1.8000000  -0.8300000  -2.6700000   2.2800000
  -0.3400000  -4.6400000   1.6600000   0.5600000  -5.1200000   1.2800000
  -1.6600000  -4.7900000   0.7900000  -2.6900000  -4.2100000   1.1300000
  -0.5200000  -5.1600000   3.1300000  -1.3600000  -4.6700000   3.6100000
   0.7500000  -4.9500000   4.0400000   1.1500000  -3.9500000   3.8700000
   1.6000000  -5.5300000   3.6800000  -0.9200000  -6.7500000   3.1300000
  -1.6000000  -7.0900000   2.3500000  -1.4100000  -7.1100000   4.0400000
  -0.0800000  -7.3400000   2.7700000   0.5900000  -5.3900000   5.5000000
   1.5200000  -5.1500000   6.0200000  -0.1600000  -4.8100000   6.0300000
   0.3800000  -6.4600000   5.5600000  -1.5100000  -5.5300000  -0.3100000
  -0.5700000  -5.8900000  -0.4300000  -2.6500000  -5.8200000  -1.2700000
  -3.4800000  -6.1100000  -0.6300000  -2.2700000  -6.6800000  -1.8200000
  -3.0000000  -4.6200000  -2.1500000  -2.6200000  -3.5100000  -1.8700000
  -3.7900000  -4.9100000  -3.2300000  -4.0100000  -5.8700000  -3.4300000
  -4.1400000  -4.0200000  -4.3700000  -3.2900000  -3.3700000  -4.6000000
  -4.3700000  -4.6500000  -5.2200000  -5.2900000  -3.1100000  -4.1300000
  -5.9800000  -2.6800000  -5.0700000  -5.7500000  -2.8900000  -2.8800000
  -5.1300000  -3.2400000  -2.1600000  -6.8900000  -2.0700000  -2.4000000
  -7.1500000  -1.3300000  -3.1500000  -6.5800000  -1.2800000  -1.1400000
  -5.5900000  -1.5400000  -0.4300000  -8.1100000  -2.9800000  -2.2400000
  -8.2200000  -3.6000000  -3.1300000  -8.1100000  -3.6500000  -1.3700000
  -9.4100000  -2.2300000  -2.3100000  -9.4900000  -0.9900000  -2.4500000
 -10.4000000  -2.9400000  -2.1600000  -7.4100000  -0.3100000  -0.7800000
  -8.2500000  -0.2400000  -1.3400000  -7.3400000   0.4300000   0.4400000
  -8.2100000   1.0900000   0.4900000  -7.3100000  -0.3100000   1.2300000
  -6.1300000   1.3400000   0.4500000  -5.4600000   1.4000000   1.4700000
  -5.7300000   1.9600000  -0.6800000  -6.4200000   1.8500000  -1.4100000
  -4.4300000   2.5700000  -0.9700000  -4.4600000   2.6600000  -2.0600000
  -3.1400000   1.6100000  -0.8200000  -2.0200000   2.1600000  -0.8600000
  -4.2800000   4.0000000  -0.3700000  -4.2600000   3.8000000   0.7000000
  -3.3800000   4.5400000  -0.6400000  -5.4500000   4.9800000  -0.7700000
  -5.4800000   4.9800000  -1.8600000  -6.4100000   4.6400000  -0.3800000
  -5.2500000   6.3500000  -0.1100000  -5.4400000   6.2800000   0.9600000
  -4.1900000   6.5700000  -0.2100000  -6.1900000   7.4700000  -0.6300000
  -7.1000000   7.0400000  -1.0600000  -6.4600000   8.0700000   0.2400000
  -5.5800000   8.3600000  -1.6100000  -5.2400000   7.9000000  -2.4400000
  -6.2200000   9.1000000  -1.8700000  -4.8500000   8.8700000  -1.1400000
  -3.2100000   0.3000000  -0.7500000  -4.1300000  -0.1000000  -0.9000000
  -1.9800000  -0.5200000  -0.7500000  -2.1800000  -1.4600000  -0.2200000
  -1.1500000   0.0200000  -0.3000000  -1.4300000  -0.9100000  -2.2200000
  -2.0700000  -0.6900000  -3.2600000  -0.2500000  -1.4700000  -2.3400000
   0.3600000  -1.4900000  -1.5400000   0.3200000  -2.0700000  -3.5300000
  -0.2700000  -1.7500000  -4.3900000   1.2500000  -1.5400000  -3.7200000
   0.4300000  -3.6000000  -3.3500000   0.7500000  -4.0800000  -2.2700000
   0.2200000  -4.4600000  -4.4000000   0.1300000  -5.4400000  -4.1700000
   0.0200000  -4.1300000  -5.8000000  -0.8200000  -4.7600000  -6.1100000
  -0.2500000  -3.0900000  -5.9700000   1.2600000  -4.6200000  -6.5600000
   2.2400000  -3.9500000  -6.4100000   1.0600000  -5.7100000  -7.1900000
   0.0900000  -5.9800000  -7.2900000   2.1400000  -6.5200000  -7.7400000
   3.1300000  -6.1300000  -7.4900000   2.0000000  -6.6800000  -9.2400000
   0.9000000  -6.6800000  -9.7700000   2.1000000  -7.8600000  -7.0100000
   2.8200000  -8.5800000  -7.4100000   1.1300000  -8.3200000  -7.2000000
   2.2000000  -7.8600000  -5.4900000   3.4200000  -8.0300000  -4.8100000
   4.3200000  -8.2400000  -5.3600000   1.0400000  -7.7500000  -4.6600000
   0.0700000  -7.7500000  -5.1300000   3.5400000  -7.9600000  -3.4100000
   4.4900000  -8.0400000  -2.9200000   1.1500000  -7.7300000  -3.2700000
   0.2400000  -7.6800000  -2.6800000   2.4300000  -7.7800000  -2.6400000
   2.5800000  -7.8500000  -1.5800000   3.0600000  -6.9100000  -9.8700000
   3.2120000  -0.8870000   6.4760000   2.8020000  -1.9170000   7.3390000
   1.4950000  -2.3320000   7.3430000   1.2210000  -3.5750000   7.8920000
  -0.0700000  -4.0580000   7.9230000  -1.1140000  -3.3000000   7.4100000
  -2.5260000  -3.8230000   7.4450000  -3.3610000  -3.2470000   8.1050000
  -2.8860000  -5.0430000   6.6930000  -3.2270000  -4.9710000   5.3470000
  -3.5750000  -6.1240000   4.6610000  -3.5750000  -7.3540000   5.3160000
  -3.2490000  -7.4250000   6.6650000  -2.9150000  -6.2630000   7.3640000
  -0.8450000  -2.0370000   6.8620000  -1.8640000  -1.2850000   6.3610000
   0.4620000  -1.5680000   6.8320000   3.5546112  -0.0262937   7.0691291
   4.0356673  -1.2462895   5.8415843   2.3667387  -0.5819588   5.8415843
   2.0402468  -4.1809622   8.3063000  -0.2737845  -5.0483871   8.3561342
  -3.2206134  -4.0012768   4.8277735  -3.8516289  -6.0680463   3.5978229
  -3.8334075  -8.2699773   4.7644466  -3.2540197  -8.3959277   7.1819857
  -2.6765632  -6.3110359   8.4367723  -1.6770909  -0.3932995   5.9736563
   0.6771571  -0.5803851   6.3980366
