
  550  0.0000000e+00
  -4.1300000   0.8900000 -11.2600000  -4.8600000   0.8200000 -10.5700000
  -3.6400000   0.0100000 -11.2900000  -4.5500000   1.0300000 -12.1800000
  -3.0900000   1.8400000 -10.9500000  -2.5300000   2.0200000 -11.8700000
  -2.2400000   1.2700000  -9.8100000  -2.8100000   0.9200000  -8.8000000
  -3.6800000   3.1800000 -10.5700000  -4.5400000   3.0900000  -9.9000000
  -4.2000000   3.6000000 -11.4400000  -2.7600000   4.0800000  -9.9900000
  -3.1100000   4.9300000  -9.7000000  -0.8900000   1.1500000 -10.0600000
  -0.5500000   1.4700000 -10.9600000   0.1900000   0.6600000  -9.0700000
  -0.2100000  -0.2700000  -8.6800000   0.4700000   1.7100000  -7.9500000
   0.5900000   1.4900000  -6.6900000   1.4200000   0.4200000  -9.9300000
   1.6400000   1.3000000 -10.5300000   1.2100000  -0.3200000 -10.6900000
   2.7300000   0.1200000  -9.1700000   2.3500000  -0.4900000  -8.3400000
   3.2500000   0.9900000  -8.7800000   3.7100000  -0.7700000  -9.9300000
   3.3800000  -1.8100000  -9.9300000   3.7000000  -0.3300000 -10.9300000
   5.1300000  -0.6500000  -9.4200000   5.4400000   0.3800000  -9.2800000
   5.1200000  -1.0200000  -8.4000000   6.0400000  -1.3400000 -10.3500000
   5.8200000  -2.3100000 -10.5100000   5.8800000  -0.9600000 -11.2700000
   7.0300000  -1.2000000 -10.2100000   0.4200000   2.9700000  -8.3400000
   0.2500000   3.0800000  -9.3200000   0.4000000   4.1500000  -7.4300000
   1.2800000   4.1000000  -6.7900000  -0.7900000   4.1800000  -6.5200000
  -0.6500000   4.4500000  -5.3600000   0.4200000   5.4600000  -8.3100000
  -0.2100000   5.2800000  -9.1700000   0.1100000   6.3200000  -7.7200000
   1.8600000   5.9300000  -8.6500000   1.8400000   6.8600000  -9.2200000
   2.3900000   6.0700000  -7.7200000   2.5600000   4.8300000  -9.5100000
   1.9500000   4.2400000 -10.3900000   3.7900000   4.7400000  -9.3300000
  -1.9900000   3.9100000  -6.9800000  -2.1400000   3.6700000  -7.9500000
  -3.1400000   3.8400000  -6.0900000  -3.2800000   4.8100000  -5.6000000
  -3.0600000   2.8400000  -4.9700000  -3.3900000   3.1900000  -3.8000000
  -4.3900000   3.4200000  -6.9900000  -4.4700000   4.2100000  -7.7400000
  -4.1400000   2.4800000  -7.4700000  -5.7900000   3.2000000  -6.3200000
  -6.4700000   2.6300000  -6.9500000  -5.6200000   2.5300000  -5.4800000
  -6.4500000   4.5300000  -5.8000000  -6.1100000   5.6500000  -6.2800000
  -7.4100000   4.4400000  -4.9600000  -2.6700000   1.6100000  -5.3100000
  -2.6300000   1.4400000  -6.3000000  -2.2100000   0.6100000  -4.2900000
  -3.0100000   0.2600000  -3.6400000  -1.2100000   1.1100000  -3.2800000
  -1.4500000   0.9000000  -2.0900000  -1.7700000  -0.6100000  -5.0100000
  -1.4500000  -1.3000000  -4.2300000  -0.8900000  -0.5500000  -5.6500000
  -2.8100000  -1.3700000  -5.9100000  -3.0900000  -0.6800000  -6.7000000
  -2.2600000  -2.6800000  -6.4500000  -1.6800000  -2.4600000  -7.3500000
  -3.0900000  -3.3300000  -6.7300000  -1.7700000  -3.2400000  -5.6600000
  -4.1300000  -1.5100000  -5.2100000  -4.8800000  -2.0800000  -5.7600000
  -3.9200000  -1.8900000  -4.2100000  -4.6100000  -0.5400000  -5.0900000
  -0.0900000   1.6500000  -3.7100000  -0.0300000   1.8200000  -4.7000000
   0.9300000   2.2000000  -2.8000000   1.2400000   1.4600000  -2.0600000
   0.4400000   3.4000000  -2.0300000   0.6900000   3.4800000  -0.8200000
   2.1500000   2.6000000  -3.6400000   1.8800000   3.0300000  -4.6100000
   3.0300000   1.4000000  -4.0700000   3.8300000   1.2900000  -3.3400000
   2.3700000   0.5300000  -3.9900000   3.0200000   3.6900000  -3.0200000
   3.9300000   3.7500000  -3.6300000   3.3100000   3.4300000  -2.0000000
   2.5800000   4.6800000  -3.1600000   3.7200000   1.3700000  -5.4600000
   3.1400000   1.5200000  -6.3700000   4.3500000   0.4900000  -5.5700000
   4.4400000   2.1900000  -5.4200000  -0.3500000   4.2800000  -2.6400000
  -0.5900000   4.1300000  -3.6100000  -1.0100000   5.3500000  -1.9300000
  -0.2800000   5.9700000  -1.3900000  -2.0100000   4.8000000  -0.8700000
  -1.8900000   5.2800000   0.2500000  -1.7500000   6.2500000  -2.9900000
  -0.9600000   6.6700000  -3.6200000  -2.4300000   5.7100000  -3.6500000
  -2.5300000   7.4500000  -2.4300000  -3.1200000   7.1500000  -1.5600000
  -1.8300000   8.2100000  -2.0700000  -3.5500000   8.1000000  -3.4600000
  -2.9800000   8.2900000  -4.3700000  -3.7600000   9.1100000  -3.0900000
  -4.8000000   7.3000000  -3.7400000  -4.5900000   6.2500000  -3.9400000
  -5.3500000   7.3300000  -2.7900000  -5.6500000   7.9200000  -4.8000000
  -6.4400000   7.3600000  -5.0900000  -5.1400000   8.2100000  -5.6200000
  -6.0500000   8.7500000  -4.3800000  -2.9000000   3.8500000  -1.1900000
  -2.7800000   3.2700000  -2.0100000  -3.6500000   3.3000000  -0.0800000
  -4.1100000   4.1200000   0.4600000  -2.8200000   2.4500000   0.9000000
  -3.1900000   2.4200000   2.0800000  -4.7600000   2.3900000  -0.6600000
  -4.3200000   1.4900000  -1.0900000  -5.3500000   2.8500000  -1.4500000
  -5.8900000   1.8400000   0.3600000  -6.6800000   1.3300000  -0.2000000
  -5.4600000   1.1700000   1.1000000  -6.5700000   3.0700000   1.0500000
  -5.8500000   3.7900000   1.4400000  -7.2200000   3.6200000   0.3600000
  -7.5200000   2.5800000   2.1200000  -6.9000000   2.0200000   2.8200000
  -8.2600000   1.9400000   1.6400000  -8.1000000   3.7000000   2.9400000
  -8.1600000   4.6000000   2.4800000  -9.0600000   3.5800000   3.2600000
  -7.4600000   3.9100000   3.7000000  -1.7100000   1.8300000   0.5200000
  -1.3700000   1.9700000  -0.4300000  -0.7400000   1.2500000   1.3300000
  -1.0600000   0.3200000   1.8000000   0.1100000   1.0300000   0.6900000
  -0.2800000   2.2700000   2.3900000  -0.2400000   2.0100000   3.6100000
  -0.0700000   3.5200000   2.0100000   0.2000000   3.6200000   1.0400000
   0.3600000   4.6400000   2.9300000   1.1400000   4.2200000   3.5800000
  -0.7000000   5.1800000   3.8300000  -0.4200000   5.5800000   4.9500000
   1.0800000   5.7900000   2.1400000   1.2900000   6.6700000   2.7400000
   0.4600000   6.0400000   1.2800000   2.4200000   5.2900000   1.5200000
   3.1600000   5.2600000   2.3200000   2.3800000   4.2600000   1.1400000
   2.8000000   6.3100000   0.3900000   2.1200000   6.1500000  -0.4500000
   2.8500000   7.3300000   0.7700000   4.2100000   5.8100000  -0.1100000
   4.0500000   4.8200000  -0.5400000   4.8100000   5.8600000   0.8000000
   4.8000000   6.7100000  -1.0600000   4.1400000   7.0400000  -1.7400000
   5.5300000   6.2300000  -1.5600000   5.1500000   7.5300000  -0.5800000
  -1.9500000   5.1400000   3.4400000  -2.1600000   5.0300000   2.4600000
  -3.1400000   5.4300000   4.2600000  -3.1100000   6.3900000   4.7600000
  -3.2900000   4.3000000   5.3500000  -3.3300000   4.6500000   6.5200000
  -4.5000000   5.4700000   3.4800000  -5.2300000   5.9300000   4.1500000
  -4.8500000   4.5100000   3.1000000  -4.5000000   6.3600000   2.2100000
  -3.9100000   7.2700000   2.3400000  -3.9900000   5.7600000   1.4600000
  -5.8800000   6.7500000   1.6800000  -6.8900000   5.9600000   1.7700000
  -5.9900000   7.8400000   1.0800000  -3.1700000   3.0700000   4.9000000
  -3.0700000   2.9800000   3.9000000  -3.2100000   1.8500000   5.7600000
  -4.1700000   1.8900000   6.2600000  -2.1200000   1.9200000   6.7800000
  -2.3600000   1.7100000   7.9700000  -3.0500000   0.5800000   4.8100000
  -2.2700000   0.7400000   4.0600000  -2.7400000  -0.3000000   5.3700000
  -4.3100000   0.1600000   3.9800000  -4.7400000   1.0800000   3.5900000
  -4.0500000  -0.8100000   2.8600000  -3.3400000  -1.5900000   3.1400000
  -4.9900000  -1.2400000   2.5200000  -3.6900000  -0.2100000   2.0200000
  -5.3200000  -0.5800000   4.9400000  -6.2200000  -0.8800000   4.4000000
  -4.8500000  -1.5100000   5.2500000  -5.6300000   0.1500000   5.6900000
  -0.8600000   2.1400000   6.3900000  -0.6200000   2.0500000   5.4100000
   0.2800000   2.2900000   7.3200000   0.3200000   1.3000000   7.7800000
  -0.1000000   3.4300000   8.3700000   0.1300000   3.3100000   9.5500000
   1.6100000   2.3900000   6.5800000   1.5500000   3.0500000   5.7100000
   2.1200000   1.0000000   6.1300000   1.3000000   0.4700000   5.6500000
   2.4400000   0.3700000   6.9700000   2.5900000   3.0000000   7.5500000
   2.3700000   4.0200000   7.8500000   3.5700000   3.0700000   7.0800000
   2.7400000   2.4000000   8.4500000   3.2600000   1.1900000   5.1200000
   3.0000000   1.7400000   4.2200000   4.1600000   1.6700000   5.5000000
   3.5500000   0.1800000   4.8200000  -0.4800000   4.6300000   7.9500000
  -0.4700000   4.8400000   6.9600000  -0.7200000   5.8100000   8.8600000
   0.1400000   5.8300000   9.5400000  -1.9300000   5.5900000   9.7800000
  -1.9900000   6.1100000  10.9000000  -0.9600000   7.1300000   8.2100000
  -1.7400000   6.9300000   7.4800000  -1.3400000   7.9100000   8.8800000
   0.3700000   7.6000000   7.5000000   1.0800000   8.1000000   8.1600000
   0.8900000   6.7200000   7.1300000  -0.0800000   8.4900000   6.3300000
  -0.9800000   8.1500000   5.8300000  -0.3200000   9.4400000   6.8000000
   0.9500000   8.7200000   5.2200000   0.9200000   7.7900000   4.6700000
   1.9300000   8.9200000   5.6500000   0.6400000   9.8800000   4.3200000
   1.1300000  10.7100000   4.6200000  -0.3500000  10.0400000   4.2100000
   1.1100000   9.6300000   3.4600000  -2.8900000   4.7900000   9.3500000
  -2.9700000   4.7000000   8.3500000  -4.1000000   4.3400000  10.0800000
  -4.4500000   5.0600000  10.8200000  -3.9500000   3.0900000  10.9600000
  -4.9400000   2.7200000  11.6200000  -5.2100000   4.1000000   9.0200000
  -4.8800000   3.5100000   8.1600000  -6.0700000   3.6200000   9.5000000
  -5.7300000   5.4800000   8.5100000  -5.9000000   6.0700000   9.4100000
  -4.9000000   6.0600000   8.1000000  -6.9800000   5.5000000   7.6900000
  -7.9600000   4.7700000   7.9200000  -7.0600000   6.2300000   6.7000000
  -2.7300000   2.5500000  11.0800000  -1.9900000   2.9400000  10.5100000
  -2.4500000   1.3900000  11.9500000  -1.4000000   1.4200000  12.2400000
  -3.1600000   1.4800000  12.7700000  -2.6900000   0.0100000  11.2900000
  -2.3700000  -0.9600000  11.9400000  -3.2300000   0.0200000  10.0400000
  -3.2700000   0.9300000   9.6000000  -3.8200000  -1.1100000   9.2600000
  -4.3600000  -1.7600000   9.9500000  -2.7900000  -2.0200000   8.6400000
  -3.2200000  -3.0300000   8.1200000  -4.7100000  -0.6100000   8.1500000
  -4.1000000  -0.0500000   7.4400000  -5.1700000  -1.4500000   7.6400000
  -5.9400000   0.2000000   8.6200000  -5.6900000   1.1900000   8.9800000
  -6.5400000   0.2500000   7.7100000  -6.9200000  -0.4700000   9.6800000
  -6.4100000  -0.8600000  10.5600000  -7.3000000  -1.4500000   9.3900000
  -8.0200000   0.5000000  10.2000000  -8.4300000   0.1100000  11.1400000
  -7.4900000   1.3900000  10.5500000  -9.0900000   0.7600000   9.2300000
  -8.8800000   1.3700000   8.4600000  -9.5000000  -0.1000000   8.9000000
  -9.9300000   1.1000000   9.6800000  -1.5400000  -1.7500000   8.7000000
  -1.3400000  -0.8600000   9.1500000  -0.4100000  -2.4400000   8.0800000
  -0.5600000  -3.5000000   8.2800000   0.8400000  -2.0600000   9.0100000
   0.8300000  -0.8900000   9.5200000  -0.1100000  -2.1700000   6.5900000
  -0.2200000  -1.1300000   6.2900000   0.9300000  -2.4600000   6.4400000
  -0.9200000  -2.9700000   5.6000000  -2.0000000  -2.8500000   5.7000000
  -0.4500000  -2.5500000   4.1800000  -0.4900000  -1.4700000   4.0800000
  -1.0900000  -3.0400000   3.4400000   0.5600000  -2.9300000   4.0700000
  -0.5300000  -4.4300000   5.7100000  -0.8600000  -4.6500000   6.7300000
   0.5400000  -4.5800000   5.5600000  -1.1400000  -4.9700000   4.9900000
   1.8600000  -2.8700000   9.1400000   3.2200000  -2.5200000   9.5800000
   3.1600000  -1.8100000  10.4000000   4.0500000  -1.8200000   8.4700000
   3.7700000  -2.0400000   7.2600000   3.7800000  -3.9200000   9.8800000
   4.8700000  -3.9100000   9.9000000   3.4900000  -4.2800000  10.8600000
   3.2100000  -4.8500000   8.8500000   3.7900000  -4.7700000   7.9200000
   3.0900000  -5.8800000   9.1800000   1.8000000  -4.3400000   8.9000000
   1.2300000  -4.8500000   9.6800000   1.3100000  -4.5300000   7.9500000
   5.0500000  -0.9300000   8.7300000   5.9000000  -0.3600000   7.6500000
   5.3000000   0.4000000   7.1600000   6.4800000  -1.4200000   6.7500000
   6.8700000  -2.5100000   7.2100000   6.9400000   0.4300000   8.4300000
   6.5200000   1.4200000   8.6400000   7.8900000   0.5600000   7.9200000
   7.0300000  -0.2300000   9.7500000   7.7500000  -1.0500000   9.7500000
   7.4600000   0.4000000  10.5300000   5.5900000  -0.7200000  10.0100000
   5.6700000  -1.7100000  10.4500000   4.9000000  -0.0200000  10.4900000
   6.4400000  -1.2800000   5.4400000   6.0000000  -0.4100000   5.1700000
   6.6400000  -2.2900000   4.3600000   7.2900000  -3.1000000   4.7200000
   7.0900000  -1.7200000   3.0500000   6.6900000  -0.6000000   2.7300000
   5.2500000  -3.0100000   4.2200000   5.0500000  -3.5200000   5.1600000
   4.5300000  -2.1900000   4.1000000   5.0400000  -3.9700000   3.0100000
   5.2700000  -3.5500000   2.0300000   5.7300000  -4.8000000   3.1100000
   3.3600000  -4.6900000   2.8100000   3.4700000  -5.6700000   4.3000000
   4.2700000  -6.4000000   4.2600000   2.5300000  -6.2100000   4.4500000
   3.4900000  -5.0400000   5.1900000   7.9000000  -2.3000000   2.1400000
   8.1000000  -3.2800000   2.2300000   8.3900000  -1.5500000   0.9400000
   8.6100000  -0.5400000   1.2900000   7.3100000  -1.4100000  -0.2200000
   6.3700000  -2.1900000  -0.2400000   9.6700000  -2.0500000   0.3200000
   9.8900000  -1.5100000  -0.6000000   9.4100000  -3.4000000  -0.0900000
   9.6400000  -3.8900000   0.7100000  10.8900000  -2.0500000   1.2900000
  10.6800000  -2.7100000   2.1300000  11.0100000  -1.0400000   1.6600000
  11.8000000  -2.1200000   0.6900000   7.6200000  -0.4800000  -1.1400000
   8.2700000   0.2500000  -0.8800000   6.7600000  -0.1800000  -2.3500000
   5.7800000  -0.0100000  -1.8900000   6.6000000  -1.4500000  -3.2300000
   5.6700000  -1.6700000  -3.9400000   7.3000000   1.0700000  -3.0600000
   8.3800000   0.9300000  -3.1800000   6.7500000   1.1500000  -4.0000000
   7.1100000   2.4300000  -2.3600000   6.6000000   2.3600000  -1.2000000
   7.4400000   3.4700000  -2.9400000   7.6800000  -2.2800000  -3.3000000
   8.5200000  -2.0800000  -2.7800000   7.6900000  -3.6800000  -3.8100000
   7.2500000  -3.7700000  -4.8000000   6.8200000  -4.7400000  -2.9800000
   6.0500000  -5.5400000  -3.5700000   9.2200000  -4.1100000  -3.7300000
   9.7000000  -3.7700000  -2.8100000   9.8100000  -3.6300000  -4.5100000
   9.5900000  -5.6100000  -3.7200000  10.6700000  -5.6500000  -3.6000000
   9.1700000  -6.0400000  -2.8100000   9.1800000  -6.4000000  -4.9500000
   9.2500000  -7.6600000  -4.8600000   8.8100000  -5.7700000  -5.9800000
   6.9500000  -4.8100000  -1.6500000   7.6900000  -4.2700000  -1.2200000
   6.1700000  -5.7200000  -0.8500000   6.2200000  -6.7400000  -1.2400000
   4.7100000  -5.2900000  -0.7600000   3.8300000  -6.1400000  -0.5500000
   6.7300000  -5.8200000   0.5600000   6.0200000  -6.1600000   1.3200000
   6.9900000  -4.7800000   0.7600000   8.0500000  -6.6300000   0.7000000
   7.9000000  -7.7000000   0.8200000   8.6600000  -6.4600000  -0.1900000
   8.6700000  -6.1600000   1.9600000   9.3000000  -5.0400000   1.9600000
   8.5000000  -6.7400000   3.0700000   4.3800000  -4.0100000  -1.0000000
   5.1100000  -3.3200000  -0.9300000   3.0700000  -3.4200000  -1.0300000
   2.4700000  -3.6600000  -0.1600000   2.2800000  -4.0800000  -2.2300000
   1.1600000  -4.5400000  -2.0200000   3.1500000  -1.8700000  -1.1500000
   2.2100000  -1.6600000  -1.6700000   3.9100000  -1.6300000  -1.8800000
   3.2200000  -1.1100000   0.2000000   4.2200000  -1.3000000   0.5800000
   2.4900000  -1.5200000   0.9000000   2.9000000   0.6800000   0.0000000
   3.8300000   1.1700000   1.4600000   3.3300000   0.6800000   2.3000000
   3.7900000   2.2500000   1.6000000   4.8500000   0.8200000   1.3300000
   2.9200000  -4.0000000  -3.4200000   3.7700000  -3.4700000  -3.5300000
   2.1700000  -4.5400000  -4.5800000   1.1300000  -4.2100000  -4.6100000
   2.1100000  -6.0900000  -4.4700000   1.1600000  -6.7200000  -4.8600000
   2.8000000  -4.0400000  -5.9500000   3.7800000  -4.5100000  -6.0400000
   2.9300000  -2.4900000  -6.0800000   3.3900000  -2.2600000  -7.0400000
   3.5900000  -2.1900000  -5.2700000   1.9700000  -4.4800000  -7.1300000
   0.9200000  -4.2100000  -7.0300000   2.1500000  -3.9200000  -8.0500000
   2.0700000  -5.5500000  -7.2900000   1.6500000  -1.6200000  -5.8300000
   1.2200000  -1.7600000  -4.8400000   0.8200000  -1.8800000  -6.5000000
   1.8200000  -0.5700000  -6.0500000   2.9600000  -6.7300000  -3.6900000
   3.6000000  -6.0900000  -3.2500000   2.7900000  -8.1700000  -3.2700000
   2.4500000  -8.6500000  -4.1900000   1.6500000  -8.3800000  -2.2900000
   0.9100000  -9.3800000  -2.3900000   4.1300000  -8.6800000  -2.8000000
   3.9400000  -9.7100000  -2.5000000   4.4600000  -8.1300000  -1.9200000
   5.2900000  -8.5600000  -3.9200000   5.1600000  -7.7500000  -4.6400000
   6.2400000  -8.4200000  -3.4000000   5.4600000  -9.8900000  -4.6500000
   4.5700000 -10.3000000  -5.4100000   6.3400000 -10.6600000  -4.2300000
   1.3800000  -7.5300000  -1.3200000   1.9900000  -6.7400000  -1.1800000
   0.2500000  -7.6600000  -0.3400000   0.0900000  -8.7200000  -0.1300000
  -1.1700000  -7.4100000  -0.9500000  -2.2000000  -7.3000000  -0.2700000
   0.4500000  -7.1200000   1.0800000  -0.4600000  -7.2800000   1.6600000
   1.6000000  -7.8200000   1.8300000   2.6000000  -7.5200000   1.5400000
   1.5900000  -8.8800000   1.5600000   1.4800000  -7.6700000   2.9100000
   0.5200000  -5.5700000   1.1100000  -0.3600000  -5.1100000   0.6600000
   1.3400000  -5.3000000   0.4500000   0.8500000  -5.1800000   2.0800000
  -1.2300000  -7.1500000  -2.2600000  -0.3400000  -6.9300000  -2.7100000
  -2.3500000  -6.6100000  -3.0500000  -3.2100000  -6.8400000  -2.4200000
  -2.5500000  -7.2900000  -4.4100000  -3.6700000  -7.3500000  -4.8900000
  -2.2100000  -5.1500000  -3.2200000  -2.8700000  -4.8000000  -4.0200000
  -0.9700000  -4.8600000  -3.6800000  -0.4200000  -4.8600000  -2.8900000
  -2.4800000  -4.2800000  -2.0500000  -1.9700000  -4.6700000  -1.1600000
  -2.1200000  -3.2800000  -2.3100000  -3.5600000  -4.2700000  -1.8700000
  -1.5000000  -7.9600000  -4.9500000  -0.5800000  -7.7900000  -4.5600000
  -1.5500000  -8.7600000  -6.1900000  -2.5900000  -9.0500000  -6.3700000
  -0.8100000 -10.1100000  -6.0000000  -1.5600000 -11.0700000  -5.5300000
  -0.9800000  -7.9700000  -7.3700000  -0.0500000  -7.4900000  -7.0400000
  -0.7800000  -8.6100000  -8.2300000  -1.8900000  -6.8200000  -7.7800000
  -2.8600000  -7.2400000  -8.0500000  -2.1300000  -6.0800000  -7.0300000
  -1.2900000  -6.1500000  -9.0200000  -1.1300000  -6.9000000  -9.7900000
  -0.3800000  -5.6100000  -8.7400000  -2.2300000  -5.1000000  -9.4200000
  -3.2100000  -5.1500000  -9.1800000  -1.9600000  -3.9800000 -10.0700000
  -0.7400000  -3.7400000 -10.5400000  -0.2100000  -4.5600000 -10.7700000
  -0.6700000  -2.9600000 -11.1800000  -2.8200000  -3.1100000 -10.4800000
  -3.7500000  -3.1300000 -10.0700000  -2.5700000  -2.5500000 -11.2800000
   0.4700000 -10.1500000  -6.1400000  -9.8250000   2.3580000  -1.1220000
 -10.3010000   1.1350000  -1.7460000  -9.3450000   0.1750000  -1.9630000
  -9.4580000  -1.0230000  -1.3110000  -8.4640000  -2.0550000  -1.4760000
  -7.4210000  -1.7920000  -2.3750000  -6.4310000  -2.8670000  -2.5620000
  -6.5280000  -3.5490000  -3.6360000  -5.2300000  -3.0410000  -1.7420000
  -5.4140000  -3.5520000  -0.4510000  -4.2990000  -3.6530000   0.4100000
  -3.0940000  -3.1670000   0.0120000  -2.9020000  -2.6010000  -1.2370000
  -3.9870000  -2.5020000  -2.1320000  -7.3190000  -0.5600000  -3.0090000
  -6.2340000  -0.3560000  -3.8780000  -8.2830000   0.4490000  -2.8280000
  -9.8664203   2.2515777  -0.0279439  -8.7871456   2.5483377  -1.4328535
 -10.4611165   3.1998586  -1.4328535 -10.3198636  -1.2014967  -0.6512045
  -8.5216174  -3.0038207  -0.9224482  -6.4113762  -3.8697165  -0.1129218
  -4.4055762  -4.1231565   1.3987337  -2.2422210  -3.2252184   0.7056016
  -1.9083792  -2.2305901  -1.5294280  -3.8664999  -2.0157509  -3.1113067
  -6.1308689   0.5101649  -4.3462118  -8.2033826   1.4154595  -3.3472466
