
  421  0.0000000e+00
   0.2800000   2.5600000  -9.9400000   0.8800000   2.5900000 -10.7500000
  -0.2300000   3.4200000 -10.0500000  -0.3200000   1.7500000  -9.8100000
   1.2000000   2.5200000  -8.7200000   1.6800000   1.5500000  -8.8800000
   0.4900000   2.5700000  -7.4200000  -0.4400000   3.3600000  -7.1600000
   2.3100000   3.5800000  -8.8500000   1.8600000   4.5700000  -8.8900000
   2.9600000   3.4700000  -7.9800000   3.2000000   3.3600000 -10.0400000
   3.9300000   2.1600000 -10.0500000   3.8400000   1.5200000  -9.1800000
   3.2500000   4.2000000 -11.1300000   2.7300000   5.1500000 -11.1000000
   4.7300000   1.8100000 -11.2100000   5.3200000   0.9000000 -11.2000000
   4.0300000   3.9000000 -12.2600000   3.9600000   4.5300000 -13.1300000
   4.7700000   2.7200000 -12.3200000   5.5400000   2.3800000 -13.3900000
   5.7800000   3.1100000 -13.9700000   0.9200000   1.7500000  -6.4500000
   1.6600000   1.1100000  -6.7100000   0.4200000   1.4800000  -5.0900000
   0.5800000   2.3700000  -4.4800000   0.9400000   0.6600000  -4.6000000
  -1.0700000   1.1800000  -5.0900000  -1.6200000   0.9000000  -6.1500000
  -1.7800000   1.1900000  -3.9700000  -1.2900000   1.5100000  -3.1400000
  -3.1800000   0.8400000  -3.8500000  -3.6100000   0.7900000  -4.8500000
  -3.1900000  -0.0900000  -3.3000000  -3.9700000   1.8600000  -3.0100000
  -3.4700000   2.9700000  -2.8300000  -5.1300000   1.5400000  -2.4600000
  -5.3500000   0.5500000  -2.4400000  -5.7400000   2.2500000  -1.3100000
  -4.8600000   2.7200000  -0.8700000  -6.4700000   1.2100000  -0.4500000
  -6.7600000   0.0500000  -0.8900000  -6.5800000   3.4700000  -1.7300000
  -6.9300000   3.9600000  -0.8200000  -5.9200000   4.1800000  -2.2400000
  -7.8000000   3.1300000  -2.6400000  -7.6200000   2.9200000  -3.8800000
  -8.9500000   3.1600000  -2.0900000  -6.7300000   1.5800000   0.8100000
  -6.3900000   2.4900000   1.0800000  -7.3100000   0.6100000   1.8100000
  -6.8300000  -0.3700000   1.8900000  -8.3900000   0.5100000   1.7000000
  -7.1700000   1.1500000   3.2000000  -7.0400000   2.3900000   3.4200000
  -7.3000000   0.3000000   4.2300000  -7.6400000  -0.6200000   4.0100000
  -7.1300000   0.7100000   5.6100000  -7.0900000   1.8000000   5.5900000
  -5.8700000   0.0800000   6.1800000  -5.2300000  -0.8000000   5.6900000
  -8.3700000   0.3400000   6.4100000  -8.1200000   0.5800000   7.4400000
  -8.4300000  -0.7300000   6.1800000  -9.6500000   1.0500000   6.0500000
  -9.8100000   2.3600000   6.3800000  -8.9900000   2.8900000   6.8400000
 -10.6000000   0.4100000   5.2300000 -10.4600000  -0.6500000   5.0400000
 -11.0200000   2.9500000   6.1300000 -11.1300000   3.9600000   6.5100000
 -11.6400000   1.1400000   4.6400000 -12.3300000   0.6900000   3.9500000
 -11.8100000   2.4200000   5.1400000 -12.6600000   3.0100000   4.8500000
  -5.5000000   0.6800000   7.3200000  -6.0300000   1.4700000   7.6500000
  -4.1500000   0.5100000   7.8700000  -4.1500000  -0.5300000   8.2100000
  -4.0100000   1.1700000   8.7300000  -2.9400000   0.7200000   6.9300000
  -3.0600000   1.4600000   5.9900000  -1.8400000   0.1200000   7.3700000
  -1.9000000  -0.1600000   8.3400000  -0.5800000   0.1000000   6.6300000
  -0.1200000   1.0800000   6.6500000  -0.8100000  -0.2200000   5.1500000
  -1.6000000  -1.0500000   4.8500000   0.2800000  -1.0100000   7.3200000
   1.1000000  -1.2800000   6.6500000  -0.2600000  -1.9400000   7.4900000
   0.8600000  -0.6000000   8.7000000   1.4100000   0.3300000   8.5900000
   0.0500000  -0.5600000   9.4200000   1.9300000  -1.6900000   8.9300000
   2.6700000  -1.6700000   8.1400000   1.4800000  -2.6700000   9.1100000
   2.6800000  -1.4500000  10.2000000   3.3200000  -0.5800000  10.0700000
   3.4000000  -2.2600000  10.3100000   1.8600000  -1.4600000  11.4300000
   1.4000000  -0.5600000  11.4100000   2.4800000  -1.4900000  12.2300000
   1.2600000  -2.2700000  11.3500000   0.0700000   0.3300000   4.3200000
   0.4900000   1.1600000   4.7400000   0.3100000  -0.1500000   2.9700000
   0.3300000  -1.2400000   2.9200000  -0.5300000   0.1700000   2.3500000
   1.6300000   0.3000000   2.3300000   2.6200000   0.4900000   3.0900000
   1.6500000   0.5900000   1.0200000   0.8100000   0.3900000   0.4900000
   2.7200000   1.4500000   0.4700000   2.5400000   2.5100000   0.6200000
   3.7100000   1.1900000   0.8500000   2.9100000   1.2600000  -0.9900000
   2.0700000   1.4600000  -1.8500000   4.0800000   0.7000000  -1.3600000
   4.6500000   0.1100000  -0.7700000   4.5000000   0.7300000  -2.7800000
   3.8100000   0.2900000  -3.5000000   5.3800000   0.1000000  -2.8500000
   4.9200000   2.0100000  -3.4000000   4.8900000   3.0400000  -2.8300000
   5.3600000   1.9500000  -4.6300000   5.1700000   1.0500000  -5.0500000
   5.6400000   3.0800000  -5.5500000   6.4000000   3.7200000  -5.1100000
   4.3500000   3.9300000  -5.5600000   3.2400000   3.3900000  -5.6000000
   5.8400000   2.7000000  -7.0000000   5.0800000   1.9800000  -7.3000000
   5.7400000   3.5600000  -7.6700000   7.1000000   1.7700000  -7.1800000
   7.0200000   0.9400000  -6.4800000   8.4400000   2.5000000  -6.9500000
   8.5000000   2.8900000  -5.9300000   9.2500000   1.7900000  -7.1400000
   8.5800000   3.2900000  -7.6800000   7.3300000   1.1400000  -8.5400000
   8.0900000   0.3700000  -8.4200000   6.4300000   0.7100000  -8.9800000
   7.6100000   1.9100000  -9.2700000   4.4700000   5.2200000  -5.5900000
   5.3900000   5.6400000  -5.5100000   3.3000000   6.1700000  -5.4300000
   3.5200000   7.1300000  -5.9000000   2.5000000   5.7800000  -6.0500000
   2.7200000   6.3300000  -4.0300000   2.0500000   7.3500000  -3.6900000
   2.8800000   5.2600000  -3.1900000   3.5700000   4.5600000  -3.4100000
   2.1700000   5.0000000  -1.9000000   2.7700000   4.2200000  -1.4300000
   2.2100000   5.8800000  -1.2600000   0.7500000   4.4300000  -2.0400000
   0.0600000   4.4800000  -3.0800000   0.3100000   3.8300000  -0.8900000
   0.8300000   3.8700000  -0.0300000  -0.8600000   3.0300000  -0.8300000
  -0.6600000   2.0300000  -1.2000000  -1.7200000   3.3800000  -1.4100000
  -1.2700000   2.7300000   0.6200000  -0.4600000   2.7000000   1.5900000
  -2.5200000   2.1800000   0.7600000  -2.8700000   1.8700000  -0.1300000
  -3.0700000   1.4700000   2.0300000  -2.2000000   1.2800000   2.6500000
  -3.7400000   0.1200000   1.7900000  -4.1500000  -0.1700000   0.6700000
  -3.9000000   2.4700000   2.8700000  -4.7200000   2.9900000   2.3600000
  -4.3100000   1.9300000   3.7200000  -2.9800000   3.5200000   3.4600000
  -2.3800000   3.9600000   2.6600000  -2.2700000   3.1700000   4.2000000
  -3.8000000   4.6500000   4.1000000  -4.7200000   4.2400000   4.5200000
  -4.2000000   5.2900000   3.3100000  -2.9400000   5.4300000   5.0700000
  -2.1000000   5.8500000   4.5200000  -2.5600000   4.7500000   5.8200000
  -3.7600000   6.4500000   5.8100000  -4.1900000   7.0400000   5.1100000
  -3.2500000   7.0600000   6.4200000  -4.4200000   5.9400000   6.3900000
  -3.7700000  -0.7300000   2.8100000  -3.3000000  -0.5700000   3.6900000
  -3.9400000  -2.1800000   2.6400000  -4.9800000  -2.3200000   2.3400000
  -3.8900000  -2.6200000   3.6300000  -2.9500000  -2.8800000   1.7300000
  -1.8600000  -2.3800000   1.4700000  -3.2600000  -4.0600000   1.2300000
  -4.1600000  -4.3800000   1.5900000  -2.5200000  -4.8900000   0.2900000
  -3.0900000  -5.8000000   0.1800000  -1.5700000  -5.2200000   0.7000000
  -2.2400000  -4.1900000  -1.0400000  -2.8100000  -3.1400000  -1.3700000
  -1.4600000  -4.9300000  -1.8400000  -1.0600000  -5.7800000  -1.4700000
  -0.8600000  -4.3900000  -3.0600000  -1.6500000  -4.1200000  -3.7600000
  -0.3400000  -5.2000000  -3.5600000   0.1600000  -3.2400000  -2.9000000
   0.6000000  -2.7300000  -1.8700000   0.5000000  -2.7500000  -4.0600000
   0.0800000  -3.1700000  -4.8800000   1.6700000  -1.8600000  -4.3700000
   1.4800000  -1.4900000  -5.3800000   1.7100000  -1.0200000  -3.6700000
   3.1000000  -2.5100000  -4.3500000   3.3800000  -3.3600000  -3.5900000
   3.9600000  -2.0500000  -5.3400000   3.5000000  -1.4700000  -6.0300000
   5.3300000  -2.5500000  -5.5200000   5.3200000  -3.6300000  -5.6700000
   6.1900000  -2.1800000  -4.1900000   6.7100000  -1.0500000  -4.1100000
   5.9100000  -1.9700000  -6.8400000   5.7100000  -0.9000000  -6.8600000
   6.9700000  -2.2300000  -6.7800000   5.3100000  -2.7400000  -8.0800000
   4.3800000  -3.2200000  -7.7700000   6.2800000  -3.8200000  -8.6200000
   7.1700000  -3.3700000  -9.0500000   5.7300000  -4.4300000  -9.3300000
   6.5900000  -4.4300000  -7.7800000   5.1600000  -1.8800000  -9.3900000
   4.3400000  -1.1600000  -9.4000000   6.1000000  -1.4100000  -9.6600000
   4.8800000  -2.5500000 -10.2100000   6.2900000  -3.1000000  -3.2200000
   5.5900000  -3.8300000  -3.2100000   7.0000000  -2.9500000  -1.9400000
   7.2200000  -3.9300000  -1.5100000   8.0000000  -2.5800000  -2.1700000
   6.3100000  -2.0300000  -0.9200000   5.0500000  -1.8700000  -0.8900000
   7.0300000  -1.5000000   0.0600000   7.9700000  -1.8700000   0.0500000
   6.5200000  -1.0000000   1.3700000   7.3900000  -0.5600000   1.8600000
   5.7200000  -0.2700000   1.2400000   5.9900000  -2.0900000   2.3000000
   6.5600000  -3.2200000   2.3100000   5.0200000  -1.8200000   3.1700000
   4.6400000  -0.8900000   3.2000000   4.3900000  -2.7500000   4.1100000
   5.1900000  -3.4700000   4.2600000   3.1700000  -3.5200000   3.5300000
   2.3700000  -3.0500000   2.6600000   3.9500000  -2.1200000   5.4900000
   3.6100000  -2.9000000   6.1700000   3.0800000  -1.5400000   5.2100000
   4.8700000  -1.2100000   6.1400000   6.1700000  -1.4900000   6.4800000
   6.6900000  -2.4200000   6.3100000   4.6500000   0.2200000   6.4900000
   6.8200000  -0.3000000   6.7500000   7.8100000  -0.1500000   6.6500000
   5.9400000   0.7600000   6.7600000   3.5600000   1.0700000   6.5300000
   2.6100000   0.6500000   6.2100000   6.1500000   2.1300000   6.9900000
   7.1500000   2.3900000   7.2900000   3.7400000   2.4300000   6.7300000
   2.8900000   3.0900000   6.6500000   5.0100000   3.0200000   6.9100000
   5.0600000   4.0900000   7.0500000   3.0700000  -4.7600000   3.9600000
   3.7800000  -5.0600000   4.6100000   1.8900000  -5.6600000   3.8100000
   1.4500000  -5.6900000   2.8100000   2.0200000  -6.6500000   4.2500000
   0.7000000  -5.1200000   4.6100000   0.8700000  -4.3200000   5.5400000
  -0.5200000  -5.5700000   4.3300000  -0.6200000  -6.3300000   3.6700000
  -1.6500000  -4.7200000   4.6700000  -1.3300000  -3.6900000   4.7500000
  -2.3000000  -4.6800000   3.8000000  -2.3000000  -5.0200000   5.9700000
  -2.1200000  -6.1100000   6.4100000  -2.9700000  -4.0700000   6.6400000
  -3.0800000  -3.1500000   6.2400000  -3.5300000  -4.2200000   8.0000000
  -3.5400000  -5.2800000   8.2500000  -5.0000000  -3.7200000   8.0900000
  -5.5400000  -3.1400000   9.0500000  -2.6600000  -3.6700000   9.0600000
  -2.2800000  -2.6700000   8.8000000  -3.2700000  -3.4700000   9.9400000
  -1.3800000  -4.5100000   9.3600000  -0.6300000  -4.4900000   8.5700000
  -1.4800000  -5.5900000   9.4600000  -0.5900000  -3.8800000  10.5200000
   0.3500000  -4.6000000  10.9300000  -0.8800000  -2.7800000  10.9700000
  -5.7100000  -3.9200000   6.9800000  -5.1800000  -4.3700000   6.2500000
  -7.0200000  -3.3700000   6.7900000  -7.6200000  -3.6300000   7.6600000
  -6.9800000  -2.2900000   6.9600000  -7.7100000  -3.8100000   5.5000000
  -7.0800000  -4.1900000   4.5800000  -9.0600000  -3.5900000   5.4700000
  -9.5600000  -3.3300000   6.3100000  -9.8600000  -3.8100000   4.2800000
  -9.6000000  -4.7800000   3.8500000  -9.5800000  -2.8100000   3.1200000
  -8.9700000  -1.7300000   3.1800000 -11.3000000  -3.9000000   4.7500000
 -11.4900000  -2.9600000   5.2600000 -12.0600000  -4.0100000   3.9700000
 -11.5800000  -4.9100000   5.7000000 -11.6400000  -4.5400000   6.5800000
 -10.1900000  -3.1900000   2.0100000 -10.7200000  -4.0400000   2.0500000
  -9.6100000  -2.8600000   0.7000000 -10.2100000  -3.3800000  -0.0500000
  -9.6800000  -1.8200000   0.3900000  -8.2200000  -3.4900000   0.5100000
  -7.9500000  -4.5600000   1.0100000  -7.2800000  -2.7900000  -0.1800000
  -7.5600000  -1.9100000  -0.5900000  -5.9800000  -3.3500000  -0.6800000
  -5.6300000  -4.0800000   0.0400000  -5.3400000  -2.4700000  -0.6300000
  -6.0300000  -3.9300000  -2.1100000  -6.8900000  -4.7700000  -2.3800000
  -5.1200000  -3.4100000  -3.0100000  -4.4400000  -2.7600000  -2.6400000
  -5.0600000  -3.8300000  -4.4200000  -4.7900000  -4.8700000  -4.5300000
  -4.0800000  -2.9300000  -5.1600000  -3.6900000  -1.8900000  -4.5600000
  -6.4900000  -3.4900000  -5.0700000  -7.1700000  -4.3100000  -4.8200000
  -6.3900000  -3.5200000  -6.1500000  -7.0900000  -2.1500000  -4.6000000
  -6.7000000  -0.8600000  -4.9300000  -5.8600000  -0.6700000  -5.5800000
  -8.2400000  -2.0000000  -3.7600000  -7.4500000   0.0500000  -4.1400000
  -7.3200000   1.0500000  -4.1100000  -8.5100000  -0.6000000  -3.4600000
  -9.2900000  -2.9000000  -3.4500000  -9.2500000  -3.9100000  -3.8200000
  -9.6600000  -0.1800000  -2.7900000  -9.7700000   0.8500000  -2.4800000
 -10.4700000  -2.4400000  -2.7500000 -11.2600000  -3.1300000  -2.4800000
 -10.6200000  -1.1100000  -2.4200000 -11.5000000  -0.8000000  -1.8700000
  -3.6800000  -3.2700000  -6.4300000  -3.9600000  -4.1300000  -6.8900000
  -2.7500000  -2.4400000  -7.1700000  -3.2000000  -2.2600000  -8.1500000
  -2.7400000  -1.4600000  -6.6900000  -1.2600000  -2.8100000  -7.1000000
  -0.8700000  -3.7600000  -6.4200000  -0.4000000  -2.0400000  -7.7800000
  -0.8700000  -1.3400000  -8.3400000   1.0600000  -2.1300000  -7.9600000
   1.4200000  -2.4200000  -6.9700000   1.7800000  -0.8700000  -8.1800000
   2.5100000  -0.3400000  -7.2800000   1.3600000  -3.2600000  -9.0200000
   0.8000000  -4.1500000  -8.7700000   2.4200000  -3.5200000  -9.1100000
   0.9400000  -2.8900000 -10.3000000   1.0200000  -1.9300000 -10.2800000
   1.6600000  -0.4500000  -9.4100000   8.7130000   8.8250000   2.0960000
   9.1420000   7.5990000   2.7770000   8.7100000   6.3800000   2.1160000
   7.5910000   5.6910000   2.7750000   7.2200000   4.3800000   2.2190000
   5.8070000   3.9540000   2.5550000   4.7480000   4.6780000   1.8060000
   7.4200000   4.4320000   0.8510000   7.2150000   3.4390000   0.0890000
   6.3720000   2.6270000   0.3220000   8.0590000   3.4690000  -1.0740000
   8.1710000   2.3620000  -1.8270000   8.8900000   2.1940000  -3.0280000
   8.8130000   0.9560000  -3.5920000   9.4490000   0.6790000  -4.7530000
  10.1720000   1.6480000  -5.3730000  10.8150000   1.4100000  -6.5380000
  10.4830000   0.2150000  -7.2060000  10.2490000   2.8780000  -4.8030000
   9.6060000   3.1350000  -3.6430000   8.4466927   9.5860554   2.8442481
   9.5330132   9.2008882   1.4664871   7.8375267   8.6076062   1.4664871
  10.2408813   7.5960457   2.8265094   8.6759374   7.6058637   3.7733626
   8.4002730   6.6360282   1.0920280   9.5646075   5.6881538   2.1475409
   7.8620487   5.5436930   3.8308567   6.7140085   6.3365792   2.6197152
   7.8574983   3.6117058   2.6808657   5.7106016   2.8807062   2.3342111
   5.6544329   4.1913060   3.6182070   4.0549306   5.1518265   2.5167343
   5.2093318   5.4505823   1.1733155   4.1955479   3.9677134   1.1733155
   8.6052485   4.3849268  -1.3436121   7.6339803   1.4748354  -1.4601911
   8.2247701   0.1701355  -3.0956104   9.3812233  -0.3266568  -5.1935231
  10.2649440  -0.5698701  -6.4667907   9.5970377   0.3812949  -7.8364101
  11.3277746  -0.0995458  -7.8364101  10.8383481   3.6697676  -5.2885644
   9.6745998   4.1387039  -3.1981712
