
  315  0.0000000e+00
  -5.1290000   1.0460000   5.9550000  -5.8430000   0.4330000   6.3230000
  -5.2680000   1.9590000   6.3640000  -5.3090000   1.1400000   4.9660000
  -3.7810000   0.5080000   6.2880000  -3.7650000   0.5010000   7.3780000
  -2.6040000   1.5010000   5.9490000  -1.6060000   1.1450000   5.3110000
  -3.5520000  -0.9090000   5.7520000  -4.2250000  -1.1470000   4.9280000
  -2.5440000  -1.0990000   5.3840000  -3.8180000  -1.9610000   6.8670000
  -3.0690000  -1.9270000   8.1150000  -2.2000000  -1.2960000   8.2280000
  -4.8120000  -2.9510000   6.6400000  -5.3320000  -2.9790000   5.6930000
  -3.4530000  -2.7460000   9.1870000  -2.9140000  -2.6510000  10.1170000
  -5.0910000  -3.7980000   7.7290000  -5.9040000  -4.5030000   7.6480000
  -4.5000000  -3.6420000   9.0180000  -4.6910000  -4.4150000   9.7480000
  -2.7270000   2.7050000   6.5390000  -3.6430000   2.9140000   6.9110000
  -1.6420000   3.7460000   6.7040000  -2.1260000   4.4950000   7.3310000
  -0.8260000   3.2980000   7.2710000  -1.0300000   4.5260000   5.4590000
  -0.0650000   5.3500000   5.6750000  -1.4560000   4.1280000   4.3060000
  -2.0870000   3.3410000   4.3380000  -0.6570000   4.3010000   3.0480000
   0.0830000   5.0980000   3.1090000  -1.5200000   4.6340000   1.8180000
  -2.7350000   4.5460000   1.7850000   0.0800000   2.9800000   2.8310000
  -0.6290000   2.1630000   2.7010000   0.4820000   2.9920000   1.8180000
   1.0200000   2.5410000   3.9130000   0.5170000   2.6230000   4.8760000
   1.9190000   3.1560000   3.8770000   1.4460000   1.0970000   3.8860000
   1.9900000   0.8000000   2.9900000   0.5270000   0.5130000   3.9320000
   2.2660000   0.7550000   5.0450000   3.2190000   0.5100000   4.8190000
   1.8790000   0.2990000   6.1870000   0.6200000   0.1040000   6.4800000
   0.4470000   0.2010000   7.4710000  -0.0910000   0.4280000   5.8410000
   2.7280000   0.0270000   7.1830000   2.3370000  -0.3150000   8.0490000
   3.7090000   0.1900000   7.0070000  -0.9070000   5.1130000   0.7380000
   0.1030000   5.0790000   0.7370000  -1.4090000   5.8570000  -0.4640000
  -1.8580000   6.8230000  -0.2360000  -2.2140000   5.3220000  -0.9670000
  -0.3150000   5.9230000  -1.5270000   0.8280000   5.4040000  -1.3850000
  -0.6830000   6.3050000  -2.7780000  -1.6010000   6.7260000  -2.7940000
   0.0250000   6.1510000  -4.0780000   0.0600000   5.0710000  -4.2230000
   1.4270000   6.7250000  -4.0630000   1.5340000   7.9270000  -3.7970000
  -0.8690000   6.6390000  -5.2570000  -1.0790000   7.6790000  -5.0080000
  -0.2370000   6.5820000  -6.1430000  -2.1420000   5.7520000  -5.4380000
  -1.9930000   4.8340000  -6.0060000  -2.6100000   5.5330000  -4.4780000
  -3.1710000   6.7170000  -6.1100000  -2.8300000   6.9210000  -7.1250000
  -3.2430000   7.5990000  -5.4720000  -4.5520000   6.0960000  -6.0850000
  -5.2520000   6.8960000  -6.3270000  -4.7480000   5.8360000  -5.0450000
  -4.7880000   5.0150000  -7.0140000  -5.7640000   4.7940000  -7.1530000
  -4.2770000   4.1590000  -6.8520000  -4.5360000   5.4050000  -7.9110000
   2.4150000   5.9350000  -4.2790000   2.0580000   5.0620000  -4.6400000
   3.8520000   6.2630000  -4.1320000   3.9210000   7.3330000  -4.3280000
   4.5070000   5.7340000  -4.8230000   4.4060000   6.0960000  -2.7180000
   5.4750000   5.5450000  -2.5510000   3.6700000   6.4300000  -1.6780000
   2.8430000   6.9390000  -1.9570000   4.0650000   6.2820000  -0.2910000
   3.2050000   6.6960000   0.2360000   5.0360000   6.7550000  -0.1450000
   4.3130000   4.8080000   0.1800000   5.2800000   4.5630000   0.8470000
   3.4150000   3.8950000  -0.3270000   2.6470000   4.2130000  -0.9010000
   3.3000000   2.5230000   0.2270000   3.4140000   2.6940000   1.2980000
   2.3190000   2.1010000   0.0110000   4.2770000   1.4680000  -0.3450000
   4.3290000   0.3150000   0.1730000   5.2010000   1.8690000  -1.2830000
   5.3260000   2.8210000  -1.5970000   6.2300000   1.0320000  -1.7700000
   5.6990000   0.1600000  -2.1510000   7.3070000   0.5090000  -0.7270000
   8.0340000   1.3010000  -0.1340000   6.8560000   1.8110000  -2.9370000
   7.4080000   2.6970000  -2.6230000   6.1070000   2.0150000  -3.7020000
   7.9650000   1.1230000  -3.7580000   8.1460000  -0.1090000  -3.5710000
   8.5560000   1.7650000  -4.6470000   7.3720000  -0.8210000  -0.5300000
   6.8730000  -1.4510000  -1.1420000   8.2310000  -1.4030000   0.4200000
   8.2850000  -2.4550000   0.1390000   9.2430000  -1.0010000   0.3890000
   7.8330000  -1.2720000   1.8620000   8.3190000  -2.0640000   2.7230000
   6.9410000  -0.3560000   2.1770000   6.6070000   0.3150000   1.5010000
   6.4520000  -0.0110000   3.5650000   7.2510000  -0.0660000   4.3040000
   5.2840000  -0.9540000   4.0350000   4.1530000  -0.7390000   3.7040000
   5.8490000   1.3980000   3.5350000   5.1410000   1.4400000   2.7070000
   5.2610000   1.5890000   4.4330000   6.8280000   2.5720000   3.5240000
   6.2140000   3.4630000   3.3940000   7.5880000   2.4210000   2.7580000
   7.5690000   2.8480000   4.8440000   8.1910000   3.9150000   4.9360000
   7.5020000   2.0820000   5.8810000   5.5970000  -1.9670000   4.8520000
   6.5520000  -2.0320000   5.1740000   4.6230000  -2.7300000   5.6140000
   3.9290000  -2.0570000   6.1180000   5.2280000  -3.3060000   6.3140000
   3.8550000  -3.7300000   4.7520000   4.4650000  -4.3570000   3.8590000
   2.5390000  -3.8690000   5.0780000   2.1800000  -3.4240000   5.9100000
   1.5390000  -4.4540000   4.2160000   1.7020000  -5.5310000   4.1860000
   1.5910000  -4.0460000   2.7140000   1.2290000  -4.8650000   1.8600000
   0.1190000  -4.1940000   4.8750000   0.0910000  -3.1770000   5.2660000
   0.0040000  -5.1280000   6.1510000  -0.0210000  -6.1600000   5.7990000
   0.9360000  -5.1080000   6.7140000  -1.0320000  -4.2630000   3.9240000
  -0.8310000  -3.5690000   3.1080000  -1.0820000  -5.2440000   3.4500000
  -1.9170000  -3.9090000   4.4530000  -1.1970000  -4.8680000   7.1450000
  -1.1410000  -3.8560000   7.5450000  -2.0980000  -5.0970000   6.5760000
  -1.1390000  -5.5460000   7.9970000   2.0910000  -2.7720000   2.4890000
   2.4550000  -2.1760000   3.2190000   2.1900000  -2.2440000   1.1330000
   1.1800000  -2.3310000   0.7330000   2.4650000  -1.1890000   1.1130000
   3.1110000  -3.0270000   0.2580000   2.7760000  -3.4790000  -0.8300000
   4.3560000  -3.2350000   0.7550000   4.5660000  -2.9900000   1.7120000
   5.3930000  -3.9510000  -0.0310000   6.3610000  -3.7220000   0.4150000
   5.4490000  -3.5280000  -1.0340000   5.1550000  -5.5010000  -0.0580000
   5.5800000  -6.1820000  -0.9820000   4.2590000  -6.1010000   0.8330000
   3.9400000  -5.5940000   1.6460000   3.6500000  -7.4660000   0.5820000
   4.4440000  -8.1270000   0.2340000   3.3300000  -7.8160000   1.5630000
   2.4790000  -7.5290000  -0.3440000   2.3510000  -8.6000000  -0.9590000
   1.7380000  -6.4720000  -0.7220000   1.6100000  -5.7510000  -0.0270000
   0.8570000  -6.3440000  -1.9020000   0.3750000  -7.3120000  -2.0440000
   1.5510000  -5.9300000  -3.1840000   1.3460000  -6.5540000  -4.1620000
  -0.3220000  -5.3520000  -1.5890000  -0.6890000  -5.0270000  -2.5620000
   0.1000000  -4.4950000  -1.0630000  -1.3850000  -5.9190000  -0.6900000
  -0.9870000  -6.3850000   0.2110000  -2.1910000  -4.7150000  -0.3020000
  -1.5450000  -3.9690000   0.1600000  -3.0360000  -5.0130000   0.3180000
  -2.6260000  -4.3070000  -1.2150000  -2.3580000  -6.8850000  -1.4430000
  -1.7850000  -7.8090000  -1.5220000  -3.3250000  -7.0360000  -0.9650000
  -2.5480000  -6.6990000  -2.5000000   2.4270000  -4.9700000  -3.1640000
   2.7080000  -4.5630000  -2.2830000   3.2610000  -4.5680000  -4.2850000
   3.9870000  -5.3680000  -4.4290000   3.8640000  -3.8220000  -3.7660000
   2.6060000  -4.0390000  -5.5960000   3.3680000  -3.9600000  -6.5490000
   1.3470000  -3.7870000  -5.6900000   0.8470000  -3.9300000  -4.8240000
   0.5290000  -3.3600000  -6.8380000  -0.3690000  -3.9730000  -6.7760000
   1.0820000  -3.5450000  -7.7590000   0.0680000  -1.9180000  -6.6060000
  -0.0510000  -1.5020000  -5.4850000   0.1470000  -1.1180000  -7.6960000
   0.4720000  -1.5060000  -8.5700000   0.2420000   0.2920000  -7.5180000
   1.1070000   0.5350000  -6.9000000  -0.9130000   0.8380000  -6.7070000
  -2.0800000   0.6160000  -6.8920000   0.4010000   0.9860000  -8.8440000
   0.6140000   2.0390000  -8.6620000   1.2780000   0.5070000  -9.2810000
  -0.7600000   0.8690000  -9.6690000  -0.8810000  -0.0670000  -9.8420000
  -0.5530000   1.5950000  -5.6610000   0.4030000   1.9200000  -5.6960000
  -1.5040000   2.1610000  -4.7810000  -1.0700000   2.8890000  -4.0950000
  -2.1970000   2.7230000  -5.4080000  -2.3550000   1.1110000  -3.9990000
  -3.2190000   1.5680000  -3.2510000  -2.1300000  -0.1990000  -4.1410000
  -1.4160000  -0.4350000  -4.8160000  -2.7640000  -1.1190000  -3.2750000
  -2.2110000  -2.0580000  -3.3050000  -2.6830000  -0.6770000  -2.2820000
  -4.1670000  -1.3610000  -3.5610000  -4.6750000  -1.4810000  -4.6430000
  -4.9820000  -1.3080000  -2.5470000  -4.5760000  -1.3460000  -1.6230000
  -6.5100000  -1.1930000  -2.6970000  -6.9100000  -1.9760000  -3.3410000
  -6.9620000   0.1110000  -3.3560000  -8.0990000   0.1910000  -3.7630000
  -7.1290000  -1.4780000  -1.3260000  -8.1990000  -1.4190000  -1.5260000
  -6.9520000  -0.6460000  -0.6450000  -6.9020000  -2.7990000  -0.6750000
  -7.7250000  -3.8970000  -0.7530000  -8.5240000  -4.0360000  -1.4660000
  -5.9600000  -3.1810000   0.4130000  -7.2140000  -4.9440000   0.0190000
  -7.6350000  -5.8620000   0.0420000  -6.1830000  -4.5170000   0.8030000
  -5.0020000  -2.4860000   1.1870000  -4.8080000  -1.4710000   0.8720000
  -5.4970000  -5.1520000   1.8670000  -5.7760000  -6.1760000   2.0680000
  -4.2320000  -3.1180000   2.2130000  -3.4700000  -2.5600000   2.7360000
  -4.5100000  -4.4320000   2.6020000  -4.0080000  -4.9440000   3.4090000
  -6.0880000   1.0980000  -3.6150000  -5.2080000   1.0540000  -3.1210000
  -6.3440000   2.3650000  -4.2260000  -6.8950000   2.2670000  -5.1620000
  -5.3970000   2.7790000  -4.5730000  -6.9930000   3.3960000  -3.2570000
  -7.7390000   4.2730000  -3.7300000  -6.6050000   3.4160000  -1.9900000
  -5.8320000   2.8270000  -1.7160000  -7.0180000   4.3360000  -0.9380000
  -8.1070000   4.3130000  -0.9770000  -6.6660000   5.8610000  -1.0990000
  -5.5110000   6.2550000  -1.1000000  -6.6700000   3.8390000   0.4700000
  -6.9810000   4.6770000   1.0930000  -5.5870000   3.8460000   0.5950000
  -7.1170000   2.4040000   0.9230000  -7.7920000   1.6070000   0.2320000
  -6.6700000   2.1140000   2.0780000  -7.6290000   6.6250000  -1.1950000
   3.7990000  -0.2240000  -4.2950000   2.7160000  -0.7910000  -3.5940000
   1.8810000   0.0120000  -2.8640000   0.7830000  -0.5770000  -2.2460000
  -0.0870000   0.2000000  -1.4940000   0.1340000   1.5660000  -1.3410000
  -0.7980000   2.4290000  -0.5330000  -0.6170000   3.6290000  -0.5470000
  -1.9390000   1.8870000   0.2400000  -1.8150000   0.7450000   1.0210000
  -2.8920000   0.2560000   1.7250000  -4.1160000   0.9030000   1.6620000
  -4.2520000   2.0560000   0.9010000  -3.1630000   2.5690000   0.2010000
   1.2300000   2.1500000  -1.9670000   1.4330000   3.4840000  -1.8260000
   2.0910000   1.3730000  -2.7250000   4.5378000   0.1628000  -3.5777000
   4.2689000  -0.9918000  -4.9272000   3.4357000   0.5996000  -4.9272000
   0.6044000  -1.6571000  -2.3531000  -0.9594000  -0.2679000  -1.0143000
  -0.8466000   0.2263000   1.0774000  -2.7810000  -0.6501000   2.3388000
  -4.9790000   0.5032000   2.2146000  -5.2248000   2.5669000   0.8507000
  -3.2623000   3.4999000  -0.3766000   2.2082000   3.9158000  -2.2649000
   2.9520000   1.8435000  -3.2224000
