
  400  0.0000000e+00
   4.8930000   4.1690000  -0.5170000   4.3240000   3.3420000  -0.6230000
   5.8780000   3.9620000  -0.5980000   4.6070000   4.7350000  -1.3030000
   4.5930000   4.9950000   0.6850000   4.8160000   4.4090000   1.5760000
   3.1040000   5.3440000   0.7120000   2.4140000   5.1770000  -0.2730000
   5.4820000   6.2600000   0.5150000   4.9450000   7.0090000  -0.0670000
   6.4390000   5.9740000   0.0780000   5.7350000   6.7280000   1.9000000
   4.8870000   6.9460000   2.5500000   6.3920000   6.0550000   2.4500000
   6.5070000   8.0650000   1.7730000   6.0700000   8.6710000   0.9790000
   6.4350000   8.6940000   2.6600000   7.8870000   7.9610000   1.3490000
   8.1160000   8.1360000   0.3810000   8.8730000   7.6100000   2.0900000
   8.8430000   7.3680000   3.3650000   8.0340000   7.4090000   3.9680000
   9.6760000   7.2120000   3.9160000  10.0340000   7.4900000   1.4440000
  10.8000000   7.3240000   2.0800000  10.0920000   7.6450000   0.4480000
   2.5740000   5.8860000   1.8100000   3.2620000   6.0320000   2.5350000
   1.1920000   6.0730000   2.1320000   0.6700000   5.1400000   2.3490000
   1.1570000   6.6910000   3.0290000   0.5240000   6.9640000   1.0420000
   1.0790000   7.9530000   0.6560000  -0.6110000   6.5360000   0.5060000
  -1.0220000   5.6940000   0.8830000  -1.4120000   7.2660000  -0.4310000
  -0.7380000   7.6550000  -1.1940000  -1.8290000   8.1720000   0.0080000
  -2.5500000   6.4000000  -0.9950000  -3.0990000   5.5260000  -0.3340000
  -3.0970000   6.8140000  -2.1640000  -2.7290000   7.6080000  -2.6680000
  -4.3420000   6.2400000  -2.8050000  -4.9360000   6.0560000  -1.9100000
  -4.1040000   4.8250000  -3.4260000  -4.2900000   4.5910000  -4.6220000
  -4.9930000   7.2320000  -3.8110000  -4.3380000   7.3030000  -4.6790000
  -5.9650000   6.8750000  -4.1540000  -5.1040000   8.6540000  -3.2110000
  -5.1020000   9.6530000  -3.9580000  -5.5010000   8.7320000  -2.0220000
  -3.7120000   3.8530000  -2.6200000  -3.7460000   3.9940000  -1.6200000
  -3.7160000   2.3980000  -2.9960000  -3.2950000   1.8700000  -2.1400000
  -2.9970000   2.3690000  -3.8140000  -5.0710000   1.7720000  -3.3930000
  -6.1120000   2.3580000  -3.2530000  -5.0620000   0.5870000  -4.0230000
  -4.2180000   0.0330000  -3.9800000  -6.2340000  -0.1030000  -4.6280000
  -6.0200000  -0.6950000  -5.5170000  -6.9830000   0.5710000  -5.0430000
  -6.9540000  -0.9950000  -3.5400000  -6.9840000  -0.7390000  -2.3810000
  -7.5520000  -2.0810000  -4.0060000  -7.5870000  -2.2230000  -5.0060000
  -8.1890000  -3.1740000  -3.3060000  -8.8190000  -2.7100000  -2.5470000
  -7.2060000  -4.0570000  -2.5510000  -7.4050000  -5.2270000  -2.3070000
  -9.1740000  -3.9140000  -4.2210000  -8.6000000  -4.4910000  -4.9470000
  -9.6390000  -3.1490000  -4.8430000 -10.3250000  -4.7810000  -3.5580000
  -9.9650000  -4.9580000  -2.5440000 -11.2180000  -4.1710000  -3.4210000
 -10.8270000  -6.0850000  -4.0510000 -11.5180000  -5.7810000  -4.8360000
 -10.0250000  -6.6690000  -4.5020000 -11.6820000  -6.9220000  -3.0730000
 -12.6810000  -6.4870000  -3.0460000 -11.1810000  -6.8050000  -2.1120000
 -11.8610000  -8.2680000  -3.6150000 -10.9950000  -8.7820000  -3.6970000
 -12.5900000  -8.8000000  -3.1620000 -12.1120000  -8.2030000  -4.5910000
  -6.1100000  -3.5280000  -2.1250000  -6.0200000  -2.5270000  -2.2300000
  -5.2900000  -4.0060000  -1.0460000  -5.6990000  -3.7490000  -0.0690000
  -5.2900000  -5.0940000  -0.9820000  -3.8190000  -3.4310000  -1.1450000
  -3.3360000  -2.8350000  -2.0860000  -3.1080000  -3.8390000  -0.0820000
  -3.6650000  -4.2090000   0.6740000  -1.7350000  -3.4190000   0.1260000
  -1.0120000  -3.7660000  -0.6120000  -1.6280000  -2.3350000   0.0860000
  -1.1750000  -3.8410000   1.5560000  -0.4460000  -3.1000000   2.2190000
  -1.6490000  -4.9690000   2.0720000  -2.1030000  -5.5380000   1.3710000
  -1.3240000  -5.6540000   3.2750000  -1.6920000  -4.9440000   4.0150000
  -2.0260000  -6.4860000   3.3170000   0.0800000  -6.1380000   3.5580000
   1.0080000  -5.8910000   2.8380000   0.2210000  -6.8750000   4.6810000
  -0.5550000  -7.1180000   5.2810000   1.5020000  -7.0290000   5.3220000
   2.2900000  -7.2270000   4.5950000   1.4210000  -7.7940000   6.0940000
   1.7010000  -5.7560000   6.2010000   0.7230000  -5.2800000   6.7610000
   2.9240000  -5.2020000   6.1630000   3.6810000  -5.7320000   5.7540000
   3.2460000  -3.8180000   6.5440000   2.2910000  -3.3190000   6.7110000
   3.7870000  -2.9560000   5.3750000   4.2330000  -3.4630000   4.3250000
   4.1150000  -3.7410000   7.8910000   5.0960000  -4.1540000   7.6550000
   4.0720000  -2.6870000   8.1660000   3.4950000  -4.5990000   8.9980000
   2.4140000  -4.4590000   8.9980000   3.8900000  -6.0970000   9.0620000
   4.9710000  -6.1380000   9.1950000   3.6160000  -6.6700000   8.1760000
   3.3240000  -6.5690000   9.8660000   3.8740000  -3.9980000  10.3220000
   3.5270000  -2.9660000  10.3730000   3.4300000  -4.5440000  11.1540000
   4.9590000  -3.9660000  10.4220000   3.5300000  -1.6740000   5.4200000
   3.1580000  -1.3000000   6.2810000   3.7230000  -0.6500000   4.3600000
   4.1600000   0.2440000   4.8050000   4.2920000  -0.9860000   3.4930000
   2.3820000  -0.0740000   3.8340000   2.3680000   0.9490000   3.1040000
   1.2330000  -0.5640000   4.3110000   1.1380000  -1.3570000   4.9280000
  -0.0020000   0.0920000   3.9210000  -0.0300000  -0.0200000   2.8370000
  -0.0620000   1.1440000   4.2000000  -1.1760000  -0.7690000   4.3460000
  -1.2220000  -1.3790000   5.3640000  -2.2010000  -0.7970000   3.5010000
  -1.9730000  -0.2260000   2.7000000  -3.3260000  -1.8140000   3.5270000
  -2.9840000  -2.8470000   3.4640000  -3.9280000  -1.5780000   4.4040000
  -4.3020000  -1.6930000   2.2660000  -5.2330000  -2.4690000   2.1480000
  -4.0520000  -0.7300000   1.3640000  -3.2570000  -0.1340000   1.5410000
  -5.0620000  -0.2430000   0.5260000  -4.8380000  -0.4350000  -0.5230000
  -6.0010000  -0.6970000   0.8430000  -5.3900000   1.2530000   0.6190000
  -4.5370000   1.9560000   1.1690000  -6.6360000   1.6920000   0.2370000
  -7.3620000   1.0210000   0.0300000  -7.0300000   3.0910000   0.1210000
  -6.4280000   3.6150000  -0.6220000  -6.9400000   3.8300000   1.4830000
  -7.0530000   3.2180000   2.5440000  -8.4850000   3.1760000  -0.3960000
  -8.7390000   4.2360000  -0.3700000  -9.1310000   2.7010000   0.3420000
  -8.7500000   2.5300000  -1.7760000  -8.2810000   3.2140000  -2.4830000
  -8.2370000   1.5690000  -1.8050000 -10.2510000   2.2200000  -2.0410000
 -10.6300000   1.6190000  -1.2140000 -10.7650000   3.1670000  -2.2080000
 -10.3600000   1.4110000  -3.3460000  -9.6950000   1.8750000  -4.0740000
 -10.0730000   0.3940000  -3.0790000 -11.7320000   1.4820000  -3.8840000
 -11.9560000   0.6390000  -4.3930000 -12.4380000   1.6810000  -3.1900000
 -11.7880000   2.2670000  -4.5170000  -6.6690000   5.1310000   1.4260000
  -6.7100000   5.5420000   0.5040000  -6.1810000   5.9810000   2.5130000
  -6.8240000   5.8250000   3.3800000  -6.0770000   6.9990000   2.1380000
  -4.7530000   5.6780000   3.0570000  -4.1840000   6.4700000   3.7790000
  -4.1750000   4.4540000   2.8740000  -4.6820000   3.8000000   2.2950000
  -3.0670000   3.8730000   3.7050000  -2.6140000   4.5870000   4.3940000
  -1.8660000   3.6080000   2.7880000  -0.7170000   3.5160000   3.2390000
  -3.3940000   2.5690000   4.4470000  -3.1790000   1.7790000   3.7260000
  -4.8350000   2.3410000   5.0160000  -5.6080000   3.0370000   4.6900000
  -4.8360000   2.4340000   6.1020000  -2.4500000   2.3520000   5.6480000
  -2.7610000   1.4290000   6.1390000  -2.4460000   3.2650000   6.2430000
  -1.4140000   2.2100000   5.3430000  -5.4300000   0.9820000   4.6670000
  -6.2630000   0.7350000   5.3250000  -4.6340000   0.2700000   4.8870000
  -5.7230000   0.9500000   3.6180000  -1.9980000   3.5080000   1.3890000
  -2.9070000   3.6990000   0.9920000  -0.9700000   3.0460000   0.4780000
  -0.0400000   3.5870000   0.6550000  -1.3210000   3.2660000  -0.5310000
  -0.7530000   1.5640000   0.6530000  -1.5820000   0.7910000   1.1370000
   0.3910000   0.9900000   0.1700000   1.1510000   1.5930000  -0.1130000
   0.5870000  -0.5100000  -0.1620000  -0.1200000  -1.0750000   0.4460000
   2.0180000  -1.0860000   0.2060000   3.0520000  -0.4810000  -0.1500000
   0.2680000  -0.7300000  -1.6920000   0.0620000  -1.7790000  -1.9070000
   1.0960000  -0.2980000  -2.2540000  -0.9280000   0.0540000  -2.2010000
  -0.6880000   1.1160000  -2.2550000  -1.7430000  -0.0890000  -1.4910000
  -1.3510000  -0.4070000  -3.6160000  -2.4820000  -0.2190000  -4.0220000
  -0.4630000  -1.0170000  -4.2570000   2.0850000  -2.2120000   0.9730000
   1.1960000  -2.6080000   1.2430000   3.3410000  -3.0120000   1.2950000
   4.2550000  -2.4250000   1.2000000   3.2560000  -3.4520000   2.2890000
   3.5040000  -4.1360000   0.2400000   3.1040000  -3.9190000  -0.9200000
   3.9770000  -5.3390000   0.6340000   4.2600000  -5.6050000   1.5660000
   4.2180000  -6.4150000  -0.3350000   4.2690000  -5.8420000  -1.2610000
   3.1400000  -7.4580000  -0.6680000   3.4750000  -8.5070000  -1.2340000
   5.6640000  -7.0010000  -0.0510000   5.9460000  -7.6890000  -0.8480000
   5.5740000  -7.6350000   0.8320000   6.7230000  -5.9360000   0.0460000
   7.5070000  -5.7760000   1.0750000   7.4840000  -6.4760000   1.8970000
   7.0140000  -4.8740000  -0.9500000   8.2710000  -4.6730000   0.9240000
   8.9070000  -4.2350000   1.5750000   8.1050000  -4.1190000  -0.3660000
   6.6490000  -4.3920000  -2.2060000   5.8860000  -4.8600000  -2.8110000
   8.8880000  -3.1740000  -0.9950000   9.7600000  -2.7490000  -0.5220000
   7.3630000  -3.3690000  -2.8920000   7.0000000  -2.9960000  -3.8380000
   8.5300000  -2.8550000  -2.3160000   9.1430000  -2.0870000  -2.7650000
   1.8670000  -7.1720000  -0.4720000   1.6970000  -6.3310000   0.0610000
   0.6900000  -8.0290000  -0.7800000   0.9370000  -8.4020000  -1.7740000
   0.4770000  -8.8620000  -0.1100000  -0.6500000  -7.2960000  -0.8190000
  -0.5710000  -6.1040000  -0.4750000  -1.7140000  -7.9870000  -1.2780000
  -1.5450000  -8.8640000  -1.7510000  -3.0670000  -7.4610000  -1.4910000
  -3.8370000  -8.2130000  -1.3140000  -3.2110000  -6.5590000  -0.8960000
  -3.2890000  -7.1200000  -2.9730000  -2.3600000  -7.3550000  -3.8080000
  -4.5200000  -6.5870000  -3.2480000  -5.2280000  -6.5490000  -2.5290000
  -4.9760000  -6.3060000  -4.6960000  -4.2670000  -6.7250000  -5.4110000
  -4.9200000  -4.8390000  -5.0300000  -5.9160000  -4.2440000  -5.2560000
  -6.3750000  -6.8790000  -4.9350000  -7.1020000  -6.4040000  -4.2750000
  -6.7700000  -6.6070000  -5.9130000  -6.3950000  -8.3890000  -4.7300000
  -5.3840000  -9.0450000  -5.0820000  -7.3630000  -8.9740000  -4.2390000
  -3.7180000  -4.2420000  -4.9470000  -2.8800000  -4.7630000  -4.7320000
  -3.5750000  -2.7490000  -5.1650000  -2.5630000  -2.4530000  -4.8890000
  -4.2610000  -2.2960000  -4.4490000  -3.6960000  -2.1250000  -6.5170000
  -3.7460000  -2.8400000  -7.5100000  -3.6310000  -0.7980000  -6.6090000
  -3.3820000  -0.3640000  -5.7320000  -3.8180000   0.0670000  -7.8350000
  -3.2010000  -0.3150000  -8.6480000  -3.5060000   1.5480000  -7.4620000
  -4.1020000   2.5220000  -8.0290000  -5.2450000   0.0030000  -8.3250000
  -5.6230000  -1.0190000  -8.3470000  -5.8530000   0.6380000  -7.6800000
  -5.4490000   0.6180000  -9.5630000  -5.2960000   1.5650000  -9.5790000
  -2.5160000   1.8920000  -6.5790000  -2.1050000   1.1950000  -5.9730000
  -1.8190000   3.2270000  -6.6500000  -1.0530000   3.1470000  -7.4210000
  -2.6420000   3.8670000  -6.9690000  -1.1650000   3.6410000  -5.3430000
  -0.4880000   2.8380000  -4.7560000  -1.2610000   4.8870000  -4.9240000
  -1.5900000   5.5470000  -5.6140000  -0.4340000   5.3980000  -3.8240000
   0.0200000   4.6630000  -3.1590000  -1.0680000   6.0380000  -3.2090000
   0.7650000   6.1560000  -4.3860000   0.9200000   6.4610000  -5.5830000
   1.7420000   6.3860000  -3.5050000   1.5700000   6.2290000  -2.5230000
   2.9980000   7.1590000  -3.7040000   2.9070000   7.6020000  -4.6960000
   4.2060000   6.2160000  -3.7710000   4.5610000   5.6310000  -2.7500000
   3.2220000   8.2790000  -2.6770000   2.3530000   8.9320000  -2.7590000
   3.2200000   7.7690000  -1.7140000   4.5190000   9.1000000  -2.8270000
   5.4090000   8.5210000  -3.0720000   4.7190000   9.3560000  -1.7870000
   4.3850000  10.4000000  -3.7090000   3.5600000  10.4480000  -4.6440000
   5.2100000  11.3340000  -3.5150000   4.8870000   6.0630000  -4.8800000
   4.7330000   6.7110000  -5.6390000   5.8880000   4.9740000  -5.2160000
   5.3900000   4.0060000  -5.1620000   6.1340000   5.0270000  -6.2760000
   7.2270000   4.9330000  -4.4350000   8.0940000   4.2130000  -4.8620000
   7.3070000   5.8000000  -3.3830000   6.4360000   6.1990000  -3.0650000
   8.5280000   5.9700000  -2.6460000   9.4160000   6.0280000  -3.2760000
   8.8460000   4.7970000  -1.7540000  10.0560000   4.4510000  -1.6060000
   8.4280000   7.2870000  -1.9890000   7.5940000   7.2110000  -1.2900000
   8.2270000   8.0340000  -2.7560000   9.5370000   7.5710000  -1.2130000
  10.2060000   7.9240000  -1.8040000   7.8940000   4.4110000  -1.0090000
  10.1450000   3.3980000   5.5280000   9.6330000   2.0830000   5.9480000
   9.9970000   0.9690000   5.0570000   9.2380000   0.8700000   3.7910000
   7.8700000   0.2100000   3.8320000   7.1350000   0.2270000   2.4840000
   5.8090000   0.8680000   2.4740000   7.9950000  -1.1680000   4.1500000
   7.6760000  -1.6100000   5.3440000   7.5450000  -0.8880000   6.2820000
   7.5550000  -3.0740000   5.3220000   7.7330000  -3.7950000   6.5000000
   7.4960000  -5.2130000   6.6310000   7.9270000  -5.8000000   7.7830000
   7.7310000  -7.1180000   7.9850000   7.0860000  -7.8990000   7.0330000
   6.9120000  -9.2160000   7.3140000   6.2550000 -10.0230000   6.3550000
   6.6440000  -7.3090000   5.8770000   6.8510000  -5.9670000   5.6850000
  10.3798440   4.0011637   6.4174053  11.0557828   3.2617777   4.9264036
   9.3818950   3.9135120   4.9264036  10.0305139   1.8644450   6.9501060
   8.5355736   2.1544169   5.9244449  11.0616495   1.0770953   4.8023692
   9.7558437   0.0534491   5.6170092   9.0968378   1.8932529   3.4128112
   9.8450249   0.2074503   3.1565328   7.3091245   0.7879060   4.5812953
   7.7708390   0.7600944   1.7618372   6.9532668  -0.8288406   2.2346536
   5.4725534   1.0306412   3.5085780   5.8729514   1.8346669   1.9529767
   5.0911634   0.2174269   1.9529767   7.3254591  -3.5968290   4.3818081
   8.0770933  -3.2476234   7.3899318   8.4358135  -5.1968802   8.5493911
   8.0865487  -7.5823997   8.9166212   5.6410461 -10.7771260   6.8691542
   5.6101203  -9.3925385   5.7251997   7.0031367 -10.5266299   5.7251997
   6.1282279  -7.9064238   5.1107991   6.4949867  -5.4894914   4.7602081
