
  315  0.0000000e+00
  -0.5700000  -8.0400000   7.7400000   0.0400000  -8.3800000   7.0100000
  -0.0100000  -7.7600000   8.5200000  -1.1400000  -8.7300000   8.2000000
  -1.4900000  -7.0300000   7.2100000  -1.9500000  -7.4500000   6.3200000
  -0.7000000  -5.7200000   6.8700000  -0.8400000  -4.7100000   7.5200000
  -2.6500000  -6.8200000   8.2100000  -2.2000000  -6.4700000   9.1400000
  -3.4100000  -6.1400000   7.8100000  -3.4000000  -7.9900000   8.8600000
  -3.0000000  -9.1700000   8.6700000  -4.2200000  -7.7100000   9.7600000
   0.2400000  -5.8900000   5.9500000   0.3700000  -6.7900000   5.5000000
   0.9900000  -4.7700000   5.3100000   1.4000000  -4.2100000   6.1500000
   0.3100000  -4.0700000   4.8200000   2.0800000  -5.1200000   4.3000000
   2.4600000  -6.2600000   4.0100000   2.4700000  -4.0200000   3.5600000
   2.3100000  -3.0600000   3.8000000   3.2900000  -4.2400000   2.3600000
   3.9200000  -5.1200000   2.5000000   2.6400000  -4.4100000   1.5000000
   4.2400000  -3.0900000   2.0500000   4.5000000  -2.2800000   2.9400000
   4.7800000  -2.9800000   0.8200000   4.3700000  -3.5800000   0.1100000
   5.4100000  -1.7400000   0.3500000   5.2700000  -0.9000000   1.0200000
   4.8700000  -1.2600000  -0.9700000   4.1600000  -2.0300000  -1.6700000
   6.8700000  -1.9500000   0.2700000   7.1300000  -2.3900000   1.2300000
   7.3900000  -1.0000000   0.1500000   7.4600000  -2.9100000  -0.7600000
   7.1200000  -2.7400000  -1.7800000   7.1900000  -3.9400000  -0.5000000
   9.0100000  -2.8300000  -0.6300000   9.6900000  -2.8300000  -1.6700000
   9.4800000  -2.8900000   0.5300000   5.1400000   0.0300000  -1.3100000
   5.6300000   0.5800000  -0.6300000   4.5600000   0.5700000  -2.5500000
   5.3500000   0.7300000  -3.2800000   3.8800000  -0.1300000  -3.0500000
   3.8000000   1.9000000  -2.3500000   4.2300000   2.7000000  -1.4600000
   2.7000000   2.1500000  -3.0400000   2.4600000   1.4900000  -3.7600000
   1.7400000   3.2300000  -2.8600000   0.7900000   2.9300000  -3.2800000
   1.5500000   3.2400000  -1.7800000   2.2000000   4.6600000  -3.2300000
   3.3700000   4.8700000  -3.5600000   1.4200000   5.7300000  -3.2300000
   0.4300000   5.5600000  -3.1800000   1.9700000   7.1100000  -3.3100000
   2.8400000   7.0400000  -3.9600000   2.4700000   7.5400000  -1.9500000
   1.8000000   7.3000000  -0.9400000   0.9900000   8.0900000  -4.0700000
   0.1200000   8.0700000  -3.4200000   0.6300000   7.6600000  -5.5400000
   0.5300000   6.5800000  -5.5700000  -0.3800000   8.0300000  -5.7600000
   1.4300000   9.5600000  -4.1500000   1.3300000   9.9700000  -3.1400000
   2.4700000   9.6300000  -4.4800000   0.8200000  10.3100000  -4.6600000
   1.4800000   8.1700000  -6.7300000   1.2900000   7.6500000  -7.6600000
   1.2000000   9.2000000  -6.9700000   2.5400000   8.1100000  -6.5000000
   3.5700000   8.2500000  -1.9200000   4.0500000   8.3800000  -2.8000000
   4.1000000   8.9200000  -0.7300000   5.0100000   9.4300000  -1.0600000
   3.4100000   9.7000000  -0.4100000   4.6200000   8.0600000   0.4200000
   4.9600000   8.6100000   1.4300000   4.7900000   6.7400000   0.2000000
   4.3500000   6.3900000  -0.6400000   5.1700000   5.7500000   1.1700000
   5.6200000   4.8500000   0.7700000   5.9400000   6.2000000   1.8000000
   3.9300000   5.2800000   1.9900000   2.9600000   5.9700000   2.0700000
   4.1200000   4.1900000   2.7200000   5.0900000   3.9000000   2.7800000
   3.1400000   3.4500000   3.5800000   3.2200000   3.8300000   4.6000000
   2.1300000   3.5800000   3.2100000   3.4400000   1.9700000   3.6500000
   3.9000000   1.3700000   2.6700000   2.9700000   1.2700000   4.6500000
   2.6100000   1.8400000   5.4000000   2.9100000  -0.1600000   4.9100000
   2.9100000  -0.6500000   3.9300000   1.6700000  -0.6000000   5.7000000
   1.5200000  -1.7800000   6.0400000   4.1800000  -0.6900000   5.5100000
   4.4700000  -0.3100000   6.4900000   4.0000000  -1.7600000   5.5700000
   5.3100000  -0.5100000   4.6700000   5.1400000  -1.1400000   3.9700000
   0.9100000   0.3700000   6.1700000   0.9200000   1.2400000   5.6600000
   0.0100000   0.1000000   7.3900000  -0.1900000   1.0100000   7.9600000
   0.5400000  -0.6000000   8.0400000  -1.2900000  -0.6300000   7.1100000
  -2.2300000  -0.6600000   7.8800000  -1.4000000  -1.2800000   5.9600000
  -0.5500000  -1.3700000   5.4300000  -2.6800000  -1.5300000   5.2400000
  -2.7300000  -2.5100000   4.7600000  -3.5500000  -1.5700000   5.8900000
  -2.9900000  -0.4600000   4.1600000  -2.0300000   0.1100000   3.6100000
  -4.2800000  -0.1400000   3.9200000  -5.0400000  -0.5800000   4.4100000
  -4.6700000   0.4900000   2.6900000  -3.8700000   0.3300000   1.9700000
  -5.0400000   1.9600000   2.8100000  -5.8600000   2.4400000   2.0800000
  -5.9100000  -0.3400000   2.1300000  -6.2400000   0.0600000   1.1700000
  -6.7500000  -0.2500000   2.8300000  -5.6500000  -1.8000000   1.9600000
  -6.1500000  -2.8200000   2.6200000  -6.8800000  -2.6100000   3.3900000
  -4.6900000  -2.3600000   1.0000000  -5.5500000  -3.9800000   2.1800000
  -5.8500000  -4.9000000   2.4700000  -4.6200000  -3.7100000   1.2100000
  -3.7900000  -1.7400000   0.1200000  -4.0400000  -0.7200000  -0.1200000
  -3.7100000  -4.5600000   0.5700000  -3.7500000  -5.6200000   0.7500000
  -2.9500000  -2.6300000  -0.6700000  -2.2800000  -2.2900000  -1.4500000
  -2.9300000  -4.0300000  -0.4700000  -2.2600000  -4.6800000  -1.0100000
  -4.5000000   2.6300000   3.8200000  -3.9000000   2.1200000   4.4500000
  -4.7100000   4.0300000   4.1200000  -4.3000000   4.1800000   5.1200000
  -5.7800000   4.2200000   4.2000000  -3.9500000   5.0600000   3.2100000
  -3.8400000   4.8700000   1.9700000  -3.4800000   6.1000000   3.8300000
  -3.6700000   6.1900000   4.8200000  -3.0000000   7.3700000   3.1800000
  -3.8400000   7.7200000   2.5700000  -1.8900000   7.1600000   2.1900000
  -0.7700000   6.8800000   2.5400000  -2.6700000   8.4000000   4.3000000
  -3.6100000   8.5800000   4.8300000  -1.8200000   8.1000000   4.9100000
  -2.2800000   9.7600000   3.7400000  -2.6000000  10.0000000   2.5300000
  -1.8700000  10.6300000   4.5400000  -2.1500000   7.3600000   0.8800000
  -3.0600000   7.7400000   0.6500000  -1.3400000   6.8900000  -0.1900000
  -1.2000000   7.6600000  -0.9500000  -0.3900000   6.5200000   0.1800000
  -1.7800000   5.6600000  -1.0700000  -1.3000000   5.5400000  -2.2000000
  -2.7100000   4.7700000  -0.7000000  -3.1200000   4.7900000   0.2200000
  -3.3600000   3.8700000  -1.6600000  -2.5500000   3.4300000  -2.2400000
  -4.3100000   4.6500000  -2.5200000  -4.2400000   4.5200000  -3.7300000
  -3.9100000   2.7000000  -0.9300000  -3.1000000   2.1600000  -0.4500000
  -4.4400000   3.0100000  -0.0300000  -4.7000000   1.8300000  -1.7900000
  -4.0800000   0.9700000  -2.7200000  -3.0100000   0.9900000  -2.8900000
  -6.0800000   1.6200000  -1.5300000  -6.4000000   2.2700000  -0.7300000
  -4.8700000   0.1300000  -3.5600000  -4.4500000  -0.4400000  -4.3700000
  -6.9000000   0.7600000  -2.3000000  -7.9800000   0.8500000  -2.2100000
  -6.2500000   0.0700000  -3.3000000  -6.8900000  -0.6100000  -3.8500000
  -5.1100000   5.5300000  -1.8700000  -5.2600000   5.6300000  -0.8800000
  -6.1200000   6.2600000  -2.6100000  -6.4900000   7.0800000  -1.9800000
  -6.8400000   5.5200000  -2.9400000  -5.5700000   6.9200000  -3.8900000
  -6.2200000   6.8500000  -4.9500000  -4.4200000   7.5600000  -3.8600000
  -3.9200000   7.8400000  -3.0300000  -3.7700000   8.0000000  -5.1100000
  -2.8500000   8.5300000  -4.9200000  -4.4800000   8.6900000  -5.5700000
  -3.5000000   6.9000000  -6.1300000  -3.9800000   6.8700000  -7.3000000
  -2.6800000   5.9300000  -5.6400000  -2.3900000   5.8800000  -4.6700000
  -2.5800000   4.5700000  -6.2500000  -3.5800000   4.1300000  -6.2700000
  -2.2400000   4.7100000  -7.2800000  -1.5500000   3.6800000  -5.5100000
  -0.8000000   3.9900000  -4.6000000  -1.5200000   2.4200000  -5.9800000
  -1.8200000   2.2400000  -6.9200000  -0.4700000   1.4400000  -5.5500000
  -0.3900000   1.6000000  -4.4700000   0.9200000   1.6900000  -6.1500000
   1.0700000   2.6100000  -6.9800000  -1.1100000   0.0600000  -5.7500000
  -1.2000000  -0.1900000  -6.8100000  -2.1500000   0.1200000  -5.4100000
  -0.6300000  -1.2100000  -5.0800000   0.2900000  -1.5800000  -5.5400000
  -0.3100000  -0.8800000  -3.6300000  -1.0900000  -0.1900000  -3.3400000
   0.7300000  -0.5400000  -3.6300000  -0.4000000  -1.7400000  -2.9600000
  -1.6800000  -2.3500000  -5.1500000  -2.6900000  -2.1100000  -4.8100000
  -1.3600000  -3.2200000  -4.5900000  -1.8300000  -2.5800000  -6.2000000
   1.8800000   0.8100000  -5.7400000   1.6100000   0.0500000  -5.1300000
   3.2200000   0.7500000  -6.2800000   3.1900000   0.7700000  -7.3700000
   3.8900000   1.5700000  -6.0100000   3.9500000  -0.5500000  -5.8300000
   5.2000000  -0.5400000  -5.7600000   3.3200000  -1.6500000  -5.5600000
   2.3200000  -1.7400000  -5.6500000   4.0000000  -2.8600000  -5.0900000
   4.7200000  -2.6800000  -4.3000000   4.6100000  -3.2800000  -5.8900000
   3.0400000  -3.9500000  -4.6600000   1.9000000  -4.0600000  -5.1100000
   3.3700000  -4.6300000  -3.5900000   4.2100000  -4.4600000  -3.0500000
   2.5900000  -5.7400000  -3.0700000   1.5500000  -5.4200000  -3.0400000
   2.9700000  -6.0200000  -1.6900000   3.9500000  -5.5500000  -1.0800000
   2.7900000  -7.0400000  -3.9900000   2.3900000  -6.6900000  -4.9400000
   3.8500000  -7.2700000  -4.1000000   2.0000000  -8.2400000  -3.6200000
   0.6000000  -8.2500000  -3.7100000   0.1000000  -7.4100000  -4.1800000
   2.6300000  -9.3300000  -3.1000000   3.7100000  -9.3900000  -2.9800000
  -0.1500000  -9.3600000  -3.2900000  -1.2200000  -9.2900000  -3.2000000
   1.8800000 -10.4600000  -2.6000000   2.4300000 -11.1900000  -2.0300000
   0.4900000 -10.4500000  -2.6800000  -0.3000000 -11.5100000  -2.3800000
  -1.2200000 -11.2400000  -2.3000000   2.1400000  -6.9000000  -1.0800000
   1.5900000  -7.4700000  -1.7100000   2.1600000  -7.3700000   0.2700000
   2.9200000  -8.1500000   0.3500000   2.5300000  -6.6400000   0.9900000
   0.8800000  -8.0800000   0.6800000   0.0000000  -8.3400000  -0.2200000
   0.7400000  -8.4200000   1.9500000   1.4800000  -8.1200000   2.5700000
  -0.4700000  -9.0300000   2.4900000  -1.3000000  -8.6100000   1.9300000
  -0.6600000  -8.6200000   3.9100000   0.2900000  -8.7100000   4.7200000
  -0.5200000 -10.5200000   2.2200000  -1.4200000 -11.0000000   2.6100000
  -0.5000000 -10.7600000   1.1600000   0.5300000 -11.1700000   2.9000000
   1.2500000 -10.6000000   3.1900000  -1.8000000  -8.3000000   4.3500000
  -3.0910000  -5.6810000   1.8340000  -2.2850000  -5.4420000   0.6800000
  -1.6110000  -4.2530000   0.5420000  -1.7580000  -3.2010000   1.4480000
  -1.0560000  -2.0210000   1.2600000  -0.2050000  -1.8730000   0.1690000
   0.5700000  -0.6030000  -0.0420000   1.3730000  -0.5670000  -0.9440000
   0.4110000   0.5840000   0.8340000  -0.8420000   1.0960000   1.1410000
  -0.9560000   2.2250000   1.9310000   0.1630000   2.8300000   2.4680000
   1.4180000   2.3360000   2.1550000   1.5500000   1.2250000   1.3210000
  -0.0580000  -2.9340000  -0.7240000   0.7920000  -2.8070000  -1.7820000
  -0.7630000  -4.1150000  -0.5270000  -2.4943000  -5.5041000   2.7410000
  -3.9552000  -5.0004000   1.8250000  -3.4445000  -6.7226000   1.8250000
  -2.4312000  -3.3088000   2.3113000  -1.1723000  -1.1958000   1.9780000
  -1.7462000   0.6026000   0.7550000  -1.9513000   2.6468000   2.1344000
   0.0584000   3.6961000   3.1380000   2.3154000   2.8217000   2.5658000
   2.5497000   0.8557000   1.0484000   0.9024000  -3.5552000  -2.4208000
  -0.6398000  -4.9475000  -1.2354000
