
  474  0.0000000e+00
   5.7100000  -9.9900000  -0.5600000   5.1500000 -10.1100000  -1.3900000
   6.0900000 -10.9200000  -0.4900000   5.1300000  -9.8100000   0.2500000
   6.7400000  -8.9200000  -0.7100000   7.1600000  -9.1200000  -1.7000000
   7.9300000  -9.0800000   0.3100000   7.7400000  -9.1100000   1.5000000
   6.1200000  -7.5000000  -0.7700000   6.9200000  -6.7700000  -0.7200000
   5.5700000  -7.3100000   0.1600000   5.2400000  -7.2400000  -1.9300000
   5.8300000  -7.1800000  -3.2500000   6.9000000  -7.2800000  -3.3600000
   3.8100000  -7.4400000  -1.7900000   3.3700000  -7.4800000  -0.8100000
   5.0200000  -7.2700000  -4.4500000   5.5400000  -7.2500000  -5.3900000
   3.0000000  -7.3900000  -2.9500000   1.9300000  -7.4800000  -2.8900000
   3.5900000  -7.3500000  -4.2800000   2.8200000  -7.7100000  -5.3400000
   1.9400000  -8.0600000  -5.1400000   9.1200000  -9.0700000  -0.2700000
   9.1600000  -8.9400000  -1.2700000  10.4100000  -9.6500000   0.3500000
  10.2200000 -10.7100000   0.4300000  10.6700000  -9.1100000   1.7500000
  11.0000000  -9.8700000   2.6300000  11.6400000  -9.3900000  -0.5800000
  12.0100000  -8.3800000  -0.4200000  11.2300000  -9.5200000  -1.9800000
  11.0100000 -10.4300000  -2.1900000  12.8600000 -10.2800000  -0.2900000
  12.5200000 -11.3100000  -0.1600000  13.5700000 -10.2100000  -1.1100000
  13.3600000  -9.9200000   0.6100000  10.5700000  -7.7700000   2.0000000
   9.8900000  -7.2100000   1.5000000  11.2900000  -7.1900000   3.2100000
  12.3300000  -7.5000000   3.2200000  10.7000000  -7.5100000   4.6100000
  11.4700000  -7.5000000   5.6300000  11.4200000  -5.6600000   3.0900000
  11.6200000  -5.1800000   4.0500000  10.3900000  -5.3300000   2.9600000
  12.3300000  -5.2000000   1.9000000  13.5400000  -5.4800000   2.0500000
  11.8300000  -4.6600000   0.8800000   9.3800000  -7.6400000   4.7300000
   8.8900000  -7.7800000   3.8600000   8.6200000  -7.9700000   5.9300000
   9.0700000  -8.8500000   6.4000000   7.6300000  -8.2900000   5.6000000
   8.3700000  -6.8700000   6.9600000   7.3000000  -6.9200000   7.5300000
   9.2700000  -5.9000000   6.9700000  10.1000000  -6.0200000   6.4100000
   9.2100000  -4.6600000   7.8300000  10.2600000  -4.4500000   8.0400000
   8.6400000  -4.8900000   8.7300000   8.6500000  -3.4400000   7.1100000
   7.4300000  -3.2400000   7.2300000   9.4200000  -2.6500000   6.3500000
  10.3700000  -2.9100000   6.1300000   8.8700000  -1.5400000   5.5000000
   8.4400000  -0.7700000   6.1500000   7.7600000  -1.9600000   4.5400000
   6.9300000  -1.1500000   4.1900000  10.1400000  -0.9600000   4.8200000
   9.7100000  -0.2800000   4.0800000  10.6300000  -1.6800000   4.1600000
  11.1400000  -0.3100000   5.7700000  10.6900000   0.4400000   6.4200000
  11.5700000  -1.1200000   6.3600000  12.3200000   0.2600000   4.9700000
  11.8200000   0.8200000   4.1900000  12.8900000  -0.5700000   4.5500000
  13.3100000   1.1500000   5.6800000  13.7300000   0.8000000   6.5300000
  13.6900000   2.3700000   5.3800000  13.4000000   2.9000000   4.2500000
  13.8000000   3.8200000   4.0800000  13.1600000   2.3400000   3.4500000
  14.5000000   3.1000000   6.0900000  14.7600000   2.7500000   7.0000000
  14.8900000   3.9400000   5.6800000   7.7100000  -3.2500000   4.0900000
   8.4000000  -3.9300000   4.3700000   6.4800000  -3.6600000   3.3400000
   6.2700000  -2.8300000   2.6600000   5.1400000  -3.7200000   4.1400000
   4.1300000  -3.3000000   3.5900000   6.6900000  -4.9700000   2.5700000
   5.7500000  -5.2100000   2.0800000   7.4900000  -4.7400000   1.8700000
   7.1500000  -5.9600000   3.4900000   6.6100000  -6.7500000   3.4100000
   5.1900000  -4.0200000   5.4400000   6.0700000  -4.4000000   5.7500000
   4.1700000  -3.6700000   6.4300000   3.3100000  -4.3000000   6.1700000
   3.9200000  -2.1000000   6.4400000   2.7900000  -1.7000000   6.3300000
   4.5700000  -4.1300000   7.8100000   5.1100000  -5.0800000   7.7700000
   5.2100000  -3.4400000   8.3600000   3.4400000  -4.2400000   8.8100000
   2.6600000  -5.3700000   8.8600000   2.7900000  -6.1600000   8.1400000
   3.2900000  -3.2100000   9.7400000   3.9800000  -2.3800000   9.6700000
   1.7600000  -5.4500000   9.9000000   1.1200000  -6.3100000  10.0300000
   2.3400000  -3.2800000  10.7500000   2.2400000  -2.4900000  11.4900000
   1.5700000  -4.4200000  10.8300000   0.7500000  -4.3900000  11.5300000
   5.0000000  -1.3000000   6.4600000   5.9000000  -1.6900000   6.7100000
   4.8200000   0.1700000   6.4100000   4.0600000   0.4100000   7.1600000
   4.2600000   0.6700000   5.0700000   3.7500000   1.7500000   4.9800000
   6.1700000   0.9300000   6.7300000   6.6600000   0.5600000   7.6300000
   6.0600000   2.0200000   6.7400000   6.9100000   0.7000000   5.9700000
   4.4200000  -0.0600000   3.9800000   4.8900000  -0.9500000   4.0600000
   3.8800000   0.3500000   2.6500000   3.9700000   1.4400000   2.6200000
   2.3800000   0.0200000   2.7000000   1.5800000   0.9100000   2.4900000
   4.5700000  -0.4000000   1.4800000   4.8400000  -1.4200000   1.7400000
   5.9600000   0.2900000   1.1700000   6.4600000   0.4900000   2.1200000
   6.4800000  -0.4000000   0.5100000   5.8400000   1.2300000   0.6300000
   3.7600000  -0.4300000   0.1900000   4.4200000  -0.3500000  -0.6700000
   3.1000000   0.4200000  -0.0200000   3.1300000  -1.3200000   0.1800000
   2.0100000  -1.2300000   2.9800000   2.7500000  -1.9200000   2.8500000
   0.6100000  -1.7300000   3.2000000   0.1300000  -1.7400000   2.2300000
  -0.1500000  -0.7700000   4.0700000  -1.3000000  -0.4400000   3.7800000
   0.6500000  -3.0800000   3.8400000   1.0700000  -2.9100000   4.8300000
   1.3900000  -3.7100000   3.3500000  -0.6700000  -3.8600000   3.9200000
  -0.5300000  -4.7700000   4.5100000  -1.2800000  -3.2600000   4.5900000
  -1.5200000  -4.1900000   2.6600000  -1.8300000  -3.1700000   2.4400000
  -0.8800000  -4.6000000   1.8800000  -2.7600000  -5.0000000   3.0600000
  -3.1800000  -4.4700000   3.9100000  -2.5400000  -6.0200000   3.3800000
  -3.6800000  -4.9900000   1.8700000  -3.9800000  -4.1000000   1.5000000
  -4.4800000  -5.5700000   2.1000000  -3.4400000  -5.5300000   1.0600000
   0.5100000  -0.2400000   5.1100000   1.4100000  -0.6400000   5.3500000
  -0.1500000   0.6700000   6.1100000  -1.0700000   0.2500000   6.5200000
  -0.6500000   2.0300000   5.4200000  -1.7700000   2.4800000   5.6800000
   0.8500000   0.9300000   7.2400000   1.8000000   1.3900000   6.9800000
   0.4200000   1.5400000   8.0300000   0.9900000   0.0300000   7.8500000
   0.1800000   2.6600000   4.5300000   1.0500000   2.1900000   4.3300000
   0.0000000   3.8900000   3.7500000  -0.3100000   4.7200000   4.3900000
  -0.9900000   3.6500000   2.6000000  -1.8500000   4.4400000   2.3800000
   1.3500000   4.2700000   3.1600000   1.1600000   5.0300000   2.4000000
   1.8200000   3.3900000   2.7200000   1.9500000   4.5400000   4.0200000
  -1.0400000   2.3900000   2.0700000  -0.2500000   1.7700000   2.1600000
  -2.1300000   2.0200000   1.1500000  -2.1700000   2.7000000   0.3000000
  -3.4800000   1.9200000   1.9100000  -4.4200000   2.6200000   1.4600000
  -1.7800000   0.7400000   0.4700000  -1.6000000  -0.0400000   1.2100000
  -0.4800000   0.7900000  -0.3500000   0.3600000   1.1800000   0.2200000
  -0.7900000   1.4700000  -1.1400000  -0.1600000  -0.2200000  -0.6000000
  -2.8700000   0.2700000  -0.4300000  -2.4900000  -0.0300000  -1.4000000
  -3.4300000  -0.4600000   0.1600000  -3.5400000   1.1100000  -0.5700000
  -3.5000000   1.1900000   2.9800000  -2.6500000   0.7900000   3.3400000
  -4.7700000   0.9200000   3.6400000  -5.3900000   0.5300000   2.8400000
  -5.4600000   2.1100000   4.1600000  -6.7100000   2.2000000   4.0000000
  -4.5700000  -0.1400000   4.6700000  -3.6000000  -0.6300000   4.5400000
  -4.6200000   0.4000000   5.6200000  -5.6100000  -1.2100000   4.7400000
  -6.4700000  -1.2900000   3.8800000  -5.5500000  -1.8500000   5.8100000
  -4.6600000   3.0700000   4.6700000  -3.6700000   2.9000000   4.6700000
  -5.2800000   4.4100000   5.0500000  -6.1700000   4.1600000   5.6300000
  -5.8700000   5.2500000   3.8900000  -6.8300000   6.0000000   4.1500000
  -4.2200000   5.2000000   5.8900000  -3.2800000   5.1400000   5.3500000
  -4.5400000   6.2300000   6.0600000  -3.8800000   4.3200000   7.2400000
  -2.8700000   4.4900000   7.6300000  -4.0400000   3.2600000   7.0500000
  -4.8100000   4.7300000   8.4600000  -5.8100000   5.4200000   8.3000000
  -4.4900000   4.4100000   9.6300000  -5.2500000   5.1200000   2.7400000
  -4.6100000   4.3300000   2.6600000  -5.7200000   5.8400000   1.5400000
  -5.9600000   6.8800000   1.7600000  -7.0100000   5.1800000   0.9600000
  -7.8300000   5.9600000   0.4700000  -4.6300000   5.7900000   0.4500000
  -3.8800000   6.5400000   0.6800000  -4.1300000   4.8200000   0.4200000
  -5.1100000   5.9700000  -0.5100000  -7.2300000   3.8800000   1.0000000
  -6.4900000   3.3000000   1.3600000  -8.4500000   3.1000000   0.5900000
  -8.7200000   3.4900000  -0.3900000  -9.5400000   3.3500000   1.5700000
 -10.6900000   3.4300000   1.0900000  -8.1900000   1.5800000   0.4200000
  -7.7600000   1.2900000   1.3800000  -7.1700000   1.3100000  -0.6400000
  -7.6600000   1.5600000  -1.5800000  -6.3300000   1.9800000  -0.4300000
  -9.4100000   0.7000000  -0.0100000  -9.1800000  -0.3500000  -0.1400000
 -10.2300000   0.7600000   0.7200000  -9.7200000   1.0800000  -0.9800000
  -6.4700000  -0.0800000  -0.4700000  -5.9800000  -0.2300000   0.4900000
  -7.1900000  -0.9000000  -0.5700000  -5.9100000  -0.2500000  -1.3900000
  -9.2700000   3.3500000   2.9000000  -8.3500000   3.2100000   3.2900000
 -10.2600000   3.5800000   3.9700000 -11.1000000   3.0000000   3.5900000
 -10.8800000   4.9700000   3.8400000 -12.0300000   5.0400000   4.0800000
  -9.6700000   3.2000000   5.3300000  -8.8500000   3.8800000   5.5500000
 -10.4400000   3.3500000   6.0800000  -9.3700000   2.1500000   5.3000000
 -10.0400000   5.9700000   3.5500000  -9.0600000   5.7600000   3.4400000
 -10.4500000   7.2700000   3.1500000 -11.1300000   7.8000000   3.8100000
 -11.0900000   7.3700000   1.6900000 -11.7600000   8.3200000   1.3700000
  -9.1200000   8.0300000   3.1500000  -8.3900000   7.7200000   2.4000000
  -9.3100000   9.0800000   2.9300000  -8.8600000   7.9600000   4.2100000
 -10.9100000   6.3600000   0.9200000 -10.4200000   5.5200000   1.2100000
 -11.3700000   6.3000000  -0.4600000 -11.2000000   5.2800000  -0.8200000
 -12.4400000   6.4000000  -0.6200000 -10.6300000   7.3000000  -1.3400000
 -11.1900000   7.7800000  -2.3800000  -9.4800000   7.8000000  -0.8500000
  -9.0400000   7.2800000  -0.1100000  -8.6700000   8.8000000  -1.5600000
  -9.3100000   9.5500000  -2.0200000  -7.9000000   8.2200000  -2.7000000
  -7.8900000   8.8100000  -3.7700000  -7.6900000   9.4800000  -0.6300000
  -6.8400000   8.8200000  -0.4600000  -8.1800000   9.7300000   0.3100000
  -6.9900000  10.7100000  -1.3100000  -6.7300000  10.5000000  -2.3500000
  -7.8800000  11.9400000  -1.4300000  -8.2300000  12.2600000  -0.4500000
  -7.3400000  12.7300000  -1.9500000  -8.7400000  11.5300000  -1.9600000
  -5.7600000  11.0500000  -0.4900000  -5.0500000  10.2500000  -0.6800000
  -6.0800000  11.1100000   0.5500000  -5.4700000  12.0300000  -0.8700000
  -7.4200000   7.0000000  -2.5300000  -7.7000000   6.4900000  -1.7000000
  -6.7900000   6.1400000  -3.5600000  -6.9600000   6.5900000  -4.5400000
  -7.4500000   4.8200000  -3.5500000  -7.6700000   4.2300000  -2.4400000
  -5.3100000   5.9200000  -3.4000000  -5.1000000   5.1600000  -2.6400000
  -4.6000000   7.2100000  -3.0400000  -4.7800000   7.4300000  -1.9800000
  -3.5400000   6.9700000  -3.1000000  -4.8900000   8.0600000  -3.6600000
  -4.6100000   5.3100000  -4.6500000  -3.5400000   5.3200000  -4.4900000
  -4.7900000   5.9200000  -5.5400000  -4.9100000   4.2700000  -4.8000000
  -8.0200000   4.3200000  -4.6400000  -8.0200000   4.8500000  -5.5000000
  -8.6800000   2.9600000  -4.7800000  -8.5300000   2.3700000  -3.8700000
  -8.0900000   2.1300000  -5.9700000  -7.8800000   0.9100000  -5.7300000
 -10.2200000   3.0300000  -4.9300000 -10.5600000   2.0000000  -4.8300000
 -10.4700000   3.4700000  -6.2100000 -10.7200000   2.6400000  -6.6200000
 -10.8600000   3.8600000  -3.8400000 -11.8500000   4.0600000  -4.2400000
 -10.2900000   4.7800000  -3.7500000 -10.8300000   3.3200000  -2.8900000
  -7.7100000   2.8100000  -7.0700000  -8.0500000   3.7600000  -7.0700000
  -6.9500000   2.1700000  -8.1500000  -7.2900000   1.1500000  -8.3500000
  -5.4200000   1.9300000  -7.7500000  -4.6000000   2.8300000  -7.6000000
  -7.1200000   2.8800000  -9.4100000  -6.5900000   3.8400000  -9.3500000
  -6.6200000   2.2400000 -10.1300000  -8.4600000   3.0200000  -9.8300000
  -8.8200000   3.8200000  -9.4600000  -4.9900000   0.7000000  -7.7600000
  -5.6700000  -0.0200000  -7.9600000  -3.6100000   0.2700000  -7.3600000
  -3.3300000   1.0000000  -6.6100000  -2.6200000   0.4300000  -8.4900000
  -1.4200000   0.3300000  -8.1900000  -3.6000000  -1.1900000  -6.8300000
  -3.7100000  -1.8400000  -7.6900000  -2.6300000  -1.4600000  -6.4000000
  -4.5600000  -1.5800000  -5.7000000  -5.5800000  -1.6700000  -6.0700000
  -4.7400000  -0.5300000  -4.6500000  -5.0200000   0.4000000  -5.1400000
  -5.4700000  -0.9100000  -3.9300000  -3.8700000  -0.2000000  -4.0900000
  -4.2700000  -2.9700000  -5.0900000  -3.2900000  -2.9500000  -4.6300000
  -4.9300000  -3.2200000  -4.2600000  -4.4100000  -3.7600000  -5.8400000
  -2.9600000   0.6700000  -9.7300000  -3.8700000   0.5300000 -10.1400000
  -1.9400000   1.3100000 -10.6200000  -1.2600000   0.4900000 -10.8700000
  -1.3600000   2.6100000 -10.0200000  -0.2200000   3.0400000 -10.3000000
  -2.7400000   1.7000000 -11.9100000  -1.9700000   1.9100000 -12.6400000
  -3.4200000   2.5400000 -11.7600000  -3.4900000   0.5300000 -12.5000000
  -3.0200000  -0.0900000 -13.5200000  -4.6900000   0.3600000 -12.0300000
  -2.0200000   3.1900000  -9.0200000  -2.9600000   2.9200000  -8.7900000
  -1.4600000   4.3200000  -8.2500000  -0.9600000   4.9800000  -8.9600000
  -0.4100000   3.9600000  -7.2200000   0.0500000   4.7800000  -6.4200000
  -2.5600000   5.1400000  -7.6500000  -2.5800000   4.8700000  -6.5900000
  -3.5300000   4.9800000  -8.1100000  -2.2700000   6.6700000  -7.7200000
  -1.1300000   7.2200000  -7.9100000  -3.2800000   7.4100000  -7.6800000
  -0.1000000   2.6500000  -7.2000000  -0.6300000   2.0100000  -7.7800000
   0.9000000   2.1200000  -6.2600000   1.5200000   2.9100000  -5.8400000
   1.9800000   1.2900000  -6.9300000   1.6800000   0.1700000  -7.3900000
   0.1600000   1.4500000  -5.0400000   0.8600000   0.8700000  -4.4400000
  -0.5400000   0.7800000  -5.5400000  -0.6200000   2.2700000  -4.0500000
   0.0300000   3.0300000  -3.1400000   1.1100000   3.0300000  -3.1600000
  -1.9900000   2.3200000  -4.0100000  -2.5200000   1.7600000  -4.7600000
  -0.5400000   3.7500000  -2.0700000   0.0800000   4.2700000  -1.3500000
  -2.6100000   2.9300000  -2.9100000  -3.6700000   2.9800000  -2.7200000
  -1.9100000   3.7500000  -2.0200000  -2.4500000   4.2900000  -1.2600000
   3.2200000   1.8300000  -6.9400000   3.2800000   2.6500000  -6.3400000
   4.4600000   1.1400000  -7.2500000   4.2600000   0.3400000  -7.9600000
   5.0000000   0.4900000  -5.9800000   5.2200000   1.1000000  -4.9700000
   5.4000000   2.0900000  -8.0800000   6.2200000   1.4800000  -8.4600000
   5.9300000   2.7000000  -7.3600000   4.8000000   3.0800000  -9.1600000
   3.7300000   2.8100000  -9.8100000   5.4200000   4.0500000  -9.5100000
   5.4300000  -0.7900000  -6.0800000   5.2800000  -1.3400000  -6.9100000
   6.0400000  -1.5500000  -5.0100000   5.7800000  -1.1000000  -4.0500000
   7.5600000  -1.4800000  -5.0000000   8.2600000  -1.7100000  -6.0100000
   5.5600000  -3.0000000  -5.0100000   6.0300000  -3.5100000  -4.1800000
   5.9200000  -3.5600000  -5.8700000   4.0100000  -3.1600000  -5.0000000
   3.3300000  -3.9900000  -5.7700000   3.7700000  -4.7400000  -6.4100000
   3.0400000  -2.2800000  -4.3200000   1.9200000  -3.7500000  -5.6500000
   1.2200000  -4.0300000  -6.3200000   1.7700000  -2.8500000  -4.6500000
   3.0100000  -1.2300000  -3.3400000   3.9500000  -0.7700000  -3.0700000
   0.5400000  -2.4200000  -4.1500000  -0.4300000  -2.7700000  -4.4700000
   1.7700000  -0.8300000  -2.7000000   1.7200000  -0.1000000  -1.9000000
   0.6100000  -1.5100000  -3.0200000  -0.3300000  -1.1700000  -2.6100000
   8.1100000  -1.1200000  -3.9200000   4.8280000  -2.8120000  -0.9800000
   4.1360000  -3.4200000   0.0730000   2.8400000  -3.7910000  -0.1610000
   1.9660000  -3.0030000  -0.8570000   0.6480000  -3.4180000  -1.0540000
   0.2060000  -4.6100000  -0.5510000  -1.2020000  -5.0900000  -0.7420000
  -1.5620000  -6.1820000  -0.2900000  -2.2310000  -4.2790000  -1.4460000
  -2.9910000  -3.3370000  -0.7550000  -3.9490000  -2.5760000  -1.4110000
  -4.1850000  -2.7660000  -2.7850000  -3.4470000  -3.7400000  -3.4850000
  -2.4950000  -4.5060000  -2.8170000   1.1130000  -5.4480000   0.1860000
   0.6850000  -6.6210000   0.6730000   2.4220000  -5.0090000   0.3680000
   5.5957481  -2.1374468  -0.5731328   5.3089799  -3.5849706  -1.5973935
   4.1233560  -2.2355434  -1.5973935   2.3029191  -2.0379496  -1.2634027
  -0.0438536  -2.7779194  -1.6211292  -2.8297134  -3.1947185   0.3237690
  -4.5254181  -1.8220663  -0.8548291  -4.9391026  -2.1592725  -3.3076959
  -3.6225887  -3.8957475  -4.5596680  -1.9459807  -5.2909266  -3.3578031
   1.3050849  -7.2018829   1.1811041   3.1316545  -5.6298524   0.9345092
