
  442  0.0000000e+00
  18.6840000  -6.0700000  11.7710000  18.9210000  -5.7680000  10.8370000
  19.3370000  -5.7450000  12.4700000  17.7310000  -5.9950000  12.0970000
  18.8540000  -7.5220000  11.7900000  18.7750000  -7.9950000  12.7680000
  19.8220000  -7.8630000  11.4230000  17.8460000  -8.1380000  10.8330000
  16.9000000  -7.3920000  10.5190000  18.1180000  -9.3160000  10.3040000
  18.8710000  -9.8860000  10.6630000  17.3200000  -9.8650000   9.2380000
  17.4910000  -9.2410000   8.3600000  15.7390000  -9.8540000   9.5380000
  14.9160000  -9.6160000   8.6310000  17.8270000 -11.2730000   8.9490000
  17.5730000 -11.9030000   9.8020000  18.8940000 -11.1060000   8.7970000
  17.4030000 -11.6430000   8.0160000  15.3780000 -10.1150000  10.7710000
  16.0670000 -10.1690000  11.5070000  14.0050000 -10.2320000  11.2100000
  13.4180000 -10.8360000  10.5180000  13.2660000  -8.8860000  11.2190000
  12.0610000  -8.7830000  10.9690000  13.9090000 -10.9070000  12.5440000
  14.4640000 -10.2080000  13.1690000  14.2560000 -11.9390000  12.5880000
  12.8720000 -10.9500000  12.8780000  13.9780000  -7.7970000  11.5120000
  14.9830000  -7.8840000  11.5540000  13.4760000  -6.4220000  11.4990000
  12.5630000  -6.4120000  12.0950000  13.2710000  -5.9880000  10.0870000
  12.3110000  -5.2870000   9.8350000  14.5470000  -5.5430000  12.1710000
  14.7020000  -5.9050000  13.1880000  15.4720000  -5.6070000  11.5990000
  14.2100000  -4.0760000  12.3200000  15.0560000  -3.5670000  12.7820000
  14.0870000  -3.5760000  11.3600000  12.9120000  -3.8010000  13.1890000
  12.5880000  -4.6140000  14.0440000  12.2390000  -2.7890000  12.9000000
  14.1370000  -6.5630000   9.1980000  14.8920000  -7.1320000   9.5550000
  14.1850000  -6.2130000   7.7940000  14.0280000  -5.1370000   7.7260000
  13.0610000  -6.8920000   6.9490000  12.4830000  -6.2340000   6.0940000
  15.5690000  -6.5600000   7.3200000  15.6570000  -6.0600000   6.3550000
  16.3240000  -6.0980000   7.9560000  15.6760000  -7.6430000   7.2610000
  12.7130000  -8.1260000   7.3180000  13.2790000  -8.5760000   8.0230000
  11.5190000  -8.8030000   6.8200000  11.6030000  -8.7510000   5.7340000
  10.1700000  -8.0850000   7.1340000   9.2700000  -8.0570000   6.3040000
  11.5100000 -10.3310000   7.2420000  11.0210000 -10.2820000   8.2150000
  10.8390000 -10.9190000   6.6150000  12.5210000 -10.7380000   7.2640000
  10.1190000  -7.4520000   8.3200000  10.8300000  -7.7290000   8.9820000
   9.0430000  -6.5770000   8.7410000   8.0760000  -7.0110000   8.4850000
   9.0740000  -5.1740000   8.0840000   8.0030000  -4.6860000   7.7310000
   8.9380000  -6.5420000  10.2750000   8.1760000  -5.8070000  10.5370000
   9.8250000  -6.0960000  10.7230000   8.6750000  -7.9080000  10.9310000
   9.2530000  -8.7140000  10.4790000   7.6090000  -8.1330000  10.9000000
   9.1610000  -7.8890000  12.3550000   8.6680000  -7.0480000  12.8420000
  10.2290000  -7.6740000  12.3490000   8.9940000  -9.1460000  12.9770000
   9.7740000  -9.7840000  13.0450000   7.9540000  -9.6360000  13.6120000
   6.8410000  -8.9430000  13.5990000   6.0000000  -9.3090000  14.0230000
   6.7150000  -8.2080000  12.9190000   8.0030000 -10.7620000  14.2640000
   7.1680000 -11.0180000  14.7720000   8.8220000 -11.3490000  14.1870000
  10.2080000  -4.6420000   7.7350000  10.9660000  -5.0700000   8.2470000
  10.4210000  -3.3960000   6.9300000   9.7020000  -2.6850000   7.3380000
  10.1120000  -3.5860000   5.4360000   9.6190000  -2.6850000   4.7950000
  11.8840000  -2.9050000   7.0720000  12.5830000  -3.3570000   6.3690000
  11.9340000  -1.9060000   6.6390000  12.1640000  -3.0060000   8.1200000
  10.4400000  -4.7970000   4.9210000  10.7380000  -5.5540000   5.5190000
  10.0860000  -5.1210000   3.5470000  10.3210000  -4.2540000   2.9300000
   8.5290000  -5.2330000   3.3550000   7.9670000  -4.7140000   2.3880000
  10.6700000  -6.4510000   3.1390000  11.7580000  -6.5260000   3.1550000
  10.4110000  -6.6770000   2.1040000  10.1650000  -7.2130000   3.7320000
   7.8540000  -5.8690000   4.3260000   8.3290000  -6.4220000   5.0260000
   6.4030000  -5.9920000   4.3170000   6.1280000  -6.3770000   3.3350000
   5.8510000  -4.6090000   4.4130000   5.0800000  -4.1860000   3.5440000
   5.8680000  -6.9610000   5.3750000   6.1930000  -7.9580000   5.0790000
   4.7840000  -6.8960000   5.4720000   6.2760000  -6.8060000   6.3740000
   6.1540000  -3.8030000   5.4510000   6.6890000  -4.2900000   6.1560000
   5.6380000  -2.4040000   5.7800000   4.6210000  -2.5230000   6.1540000
   5.6590000  -1.4140000   4.5540000   4.7330000  -0.6610000   4.2910000
   6.4190000  -1.8550000   6.9050000   7.4590000  -1.6990000   6.6210000
   6.5270000  -2.6480000   7.6450000   5.9870000  -0.9180000   7.2570000
   6.7240000  -1.5500000   3.7660000   7.4150000  -2.2530000   3.9870000
   6.9710000  -0.7160000   2.5740000   6.6720000   0.3030000   2.8190000
   6.1740000  -1.1090000   1.3140000   5.5590000  -0.2830000   0.7110000
   8.4810000  -0.8620000   2.4100000   8.8590000  -0.3600000   1.5200000
   8.7340000  -1.9190000   2.3310000   9.0360000  -0.4820000   3.2680000
   6.0970000  -2.4320000   0.9720000   6.7490000  -3.0610000   1.4180000
   5.1120000  -3.0130000   0.0700000   5.1880000  -2.4760000  -0.8750000
   3.6290000  -2.7410000   0.4690000   2.8550000  -2.4750000  -0.4200000
   5.3260000  -4.5470000  -0.2460000   5.4050000  -5.0030000   0.7410000
   6.4630000  -4.8590000  -1.2600000   7.3230000  -4.3110000  -0.8740000
   6.2980000  -4.5030000  -2.2770000   4.0570000  -5.2050000  -0.8030000
   3.2540000  -5.2030000  -0.0650000   4.1440000  -6.2880000  -0.8910000
   3.7610000  -4.7710000  -1.7580000   6.9020000  -6.3080000  -1.3040000
   7.8700000  -6.3760000  -1.8010000   6.9550000  -6.6830000  -0.2820000
   6.1920000  -6.9320000  -1.8460000   3.3090000  -2.8320000   1.7830000
   4.0210000  -3.0490000   2.4650000   1.9520000  -2.5250000   2.2770000
   1.2020000  -3.1530000   1.7950000   1.5500000  -1.1350000   1.8370000
   0.4500000  -0.9050000   1.3350000   1.9150000  -2.6010000   3.8210000
   2.7820000  -2.1020000   4.2550000   1.0230000  -2.0530000   4.1230000
   1.8740000  -4.0230000   4.4380000   1.0660000  -4.6170000   4.0110000
   2.8060000  -4.5800000   4.3400000   1.7330000  -3.9660000   5.9420000
   1.5240000  -4.9710000   6.3090000   2.5480000  -3.4530000   6.4520000
   0.5040000  -3.2070000   6.3170000  -0.0850000  -2.8460000   5.5810000
   0.0410000  -3.2020000   7.5570000   0.5730000  -3.8220000   8.6000000
   1.4310000  -4.3510000   8.5410000   0.1990000  -3.5990000   9.5120000
  -1.1620000  -2.6980000   7.6690000  -1.6000000  -2.0680000   7.0130000
  -1.5830000  -2.5590000   8.5760000   2.4880000  -0.1350000   2.0300000
   3.3650000  -0.4310000   2.4350000   2.2620000   1.3080000   1.6090000
   1.3820000   1.6500000   2.1550000   1.9330000   1.4780000   0.0860000
   0.8740000   2.0240000  -0.1380000   3.3640000   2.2750000   2.0800000
   3.3400000   3.2490000   1.5900000   3.2230000   2.4020000   3.1530000
   4.3340000   1.8130000   1.8950000   2.6680000   0.8520000  -0.7950000
   3.5410000   0.4540000  -0.4770000   2.4180000   0.8480000  -2.2380000
   2.3290000   1.8430000  -2.6740000   0.9890000   0.2520000  -2.4530000
   0.1170000   0.8580000  -3.1430000   3.4890000   0.0530000  -3.0510000
   3.7470000  -0.8090000  -2.4360000   3.0660000  -0.3310000  -4.4850000
   3.8410000  -0.9290000  -4.9660000   3.1160000   0.5670000  -5.1010000
   2.0810000  -0.7970000  -4.5190000   4.7880000   0.8930000  -3.1190000
   5.6190000   0.3090000  -3.5160000   5.1170000   1.1460000  -2.1120000
   4.6640000   1.7950000  -3.7190000   0.6500000  -0.8390000  -1.7250000
   1.3080000  -1.2260000  -1.0640000  -0.7250000  -1.4510000  -1.8270000
  -1.0310000  -1.5540000  -2.8690000  -1.8710000  -0.5260000  -1.3360000
  -2.9210000  -0.4920000  -1.9580000  -0.7780000  -2.8030000  -1.0490000
  -1.8270000  -3.0850000  -1.1390000  -0.6800000  -2.6770000   0.0290000
   0.0480000  -3.9360000  -1.7700000   1.1250000  -3.7720000  -1.7250000
  -0.2260000  -4.0390000  -2.8200000  -0.1650000  -5.2520000  -1.1000000
  -1.1950000  -5.5990000  -1.0230000   0.2520000  -5.1140000  -0.1020000
   0.5560000  -6.3430000  -1.7100000   0.9770000  -6.1480000  -2.6080000
   0.7870000  -7.6090000  -1.3310000   0.4760000  -8.0520000  -0.1760000
   0.0040000  -7.4390000   0.4730000   0.6030000  -9.0210000   0.0780000
   1.5570000  -8.2850000  -2.1130000   1.7670000  -8.0790000  -3.0790000
   1.8610000  -9.2320000  -1.9350000  -1.7080000   0.2580000  -0.2930000
  -0.8810000   0.0200000   0.2350000  -2.6620000   1.2450000   0.1790000
  -3.6630000   0.8300000   0.3010000  -2.8620000   2.3590000  -0.8610000
  -4.0190000   2.7610000  -1.1660000  -2.1840000   1.7640000   1.5280000
  -2.8630000   2.4790000   1.9930000  -1.9580000   1.0760000   2.3420000
  -1.3170000   2.3850000   1.3050000  -1.7740000   2.8600000  -1.5200000
  -0.8730000   2.5250000  -1.2100000  -1.8740000   3.9000000  -2.5420000
  -2.5530000   4.7120000  -2.2840000  -2.4960000   3.3650000  -3.7970000
  -3.1290000   4.2110000  -4.4830000  -0.4410000   4.4430000  -2.8500000
   0.1960000   3.6110000  -3.1500000  -0.0890000   4.9790000  -1.9690000
  -0.4880000   5.1270000  -3.6960000  -2.3760000   2.0780000  -4.1880000
  -1.6100000   1.6340000  -3.7010000  -2.9190000   1.4240000  -5.4520000
  -2.7450000   2.0620000  -6.3190000  -4.4400000   1.2360000  -5.1640000
  -5.2120000   1.3220000  -6.1300000  -2.3030000  -0.0250000  -5.5510000
  -3.0120000  -0.7990000  -5.8470000  -1.9880000  -0.2920000  -4.5420000
  -1.1540000  -0.1210000  -6.4910000  -0.3120000   0.4390000  -6.0840000
  -0.5580000  -1.5200000  -6.4630000  -1.2940000  -2.2470000  -6.8060000
   0.3800000  -1.6390000  -7.0040000  -0.2490000  -1.7270000  -5.4390000
  -1.4770000   0.1620000  -7.9150000  -0.5690000   0.1000000  -8.5150000
  -2.1680000  -0.5340000  -8.3900000  -1.8360000   1.1710000  -8.1180000
  -4.8570000   1.0410000  -3.8630000  -4.1700000   1.0460000  -3.1230000
  -6.2060000   0.7900000  -3.5170000  -6.7470000   0.2030000  -4.2600000
  -6.9270000   2.1520000  -3.5370000  -7.8900000   2.2710000  -4.2940000
  -6.2840000   0.1150000  -2.1210000  -7.2380000   0.3910000  -1.6720000
  -5.4210000   0.4250000  -1.5320000  -6.4190000  -1.3670000  -2.2580000
  -5.5510000  -1.7820000  -2.7700000  -7.2600000  -1.4960000  -2.9390000
  -6.7420000  -2.1630000  -0.9600000  -7.0840000  -3.1350000  -1.3150000
  -7.5680000  -1.7610000  -0.3740000  -5.4770000  -2.3730000  -0.1790000
  -4.9770000  -3.1990000  -0.4750000  -4.9580000  -1.6730000   0.8200000
  -5.6500000  -0.7720000   1.3890000  -6.5270000  -0.4160000   1.0380000
  -5.2410000  -0.2670000   2.1620000  -3.8200000  -1.9940000   1.3690000
  -3.4640000  -1.3780000   2.0860000  -3.2810000  -2.8040000   1.0960000
  -6.2760000   3.1800000  -3.0110000  -5.3950000   2.9980000  -2.5520000
  -6.8010000   4.4990000  -3.0230000  -7.8410000   4.4360000  -2.7030000
  -7.0140000   5.0290000  -4.4790000  -8.0880000   5.5210000  -4.8420000
  -5.9540000   5.2960000  -2.0450000  -6.2510000   6.3420000  -1.9680000
  -6.0660000   4.8240000  -1.0690000  -4.8930000   5.2150000  -2.2800000
  -5.9510000   5.0280000  -5.2660000  -5.1200000   4.6600000  -4.8240000
  -5.8600000   5.6580000  -6.6300000  -6.0110000   6.7160000  -6.4180000
  -6.8680000   5.0470000  -7.5640000  -7.7110000   5.7500000  -8.1560000
  -4.4090000   5.3810000  -7.1140000  -4.3460000   4.3450000  -7.4470000
  -3.7040000   5.6960000  -6.3450000  -4.2600000   6.0580000  -7.9550000
  -6.9890000   3.7030000  -7.6030000  -6.3780000   3.0950000  -7.0770000
  -8.1140000   3.0340000  -8.2860000  -8.0390000   3.4340000  -9.2970000
  -9.5420000   3.4610000  -7.7450000 -10.3230000   3.7940000  -8.5200000
  -7.8900000   1.5470000  -8.1940000  -7.1460000   1.1980000  -8.9100000
  -7.5010000   1.1770000  -7.2450000  -8.8690000   1.0780000  -8.2930000
  -9.7140000   3.6030000  -6.4490000  -9.0000000   3.1950000  -5.8610000
 -11.0820000   3.8270000  -5.9080000 -11.7130000   3.2470000  -6.5820000
 -11.5460000   5.2520000  -6.0370000 -12.7520000   5.5460000  -5.7660000
 -10.9320000   3.4370000  -4.4360000 -11.9090000   3.6520000  -4.0030000
 -10.6140000   2.4070000  -4.2720000 -10.1590000   4.0630000  -3.9910000
 -10.6340000   6.2270000  -6.0910000  -9.6550000   5.9810000  -6.0830000
 -10.9340000   7.6100000  -6.4450000 -11.7530000   7.8980000  -5.7850000
 -11.4850000   7.7170000  -7.8560000 -12.4880000   8.4290000  -8.1250000
  -9.6760000   8.4340000  -6.1470000  -8.8890000   7.9910000  -6.7570000
  -9.3350000   8.2650000  -5.1250000  -9.6960000   9.8330000  -6.5520000
  -9.8540000   9.9740000  -7.6210000 -10.7860000  10.6780000  -5.8080000
 -10.5560000  11.6910000  -6.1390000 -10.5580000  10.6900000  -4.7420000
 -11.7750000  10.3200000  -6.0930000  -8.3290000  10.3780000  -6.2360000
  -8.2630000  11.4440000  -6.4530000  -7.5660000   9.7550000  -6.7010000
  -8.2180000  10.3250000  -5.1530000 -10.7910000   7.0030000  -8.7390000
 -10.1370000   6.2790000  -8.4760000 -11.0550000   6.9870000 -10.1710000
 -11.0710000   8.0250000 -10.5020000 -12.5350000   6.5220000 -10.4970000
 -13.1890000   7.0230000 -11.4350000  -9.9260000   6.3560000 -10.9070000
  -8.9450000   6.8090000 -10.7610000 -10.1110000   6.3650000 -11.9810000
  -9.9150000   5.3020000 -10.6300000 -13.0370000   5.6680000  -9.6110000
 -12.3880000   5.3870000  -8.8910000 -14.4370000   5.2910000  -9.6990000
 -14.6130000   4.7180000 -10.6100000 -15.4110000   6.4850000  -9.5640000
 -16.1360000   6.7730000 -10.5280000 -14.6520000   4.2450000  -8.5490000
 -15.0250000   4.7250000  -7.6440000 -13.7530000   3.6490000  -8.3940000
 -15.4560000   3.5710000  -8.8450000 -15.2990000   7.2500000  -8.4650000
 -14.5150000   7.0390000  -7.8650000 -16.0660000   8.5280000  -8.2660000
 -17.1190000   8.2970000  -8.4260000 -15.5840000   9.7380000  -9.1200000
 -16.2970000  10.7000000  -9.2950000 -15.8420000   8.8730000  -6.8070000
 -15.9430000   8.0390000  -6.1130000 -14.7990000   9.1530000  -6.6640000
 -16.3870000   9.7890000  -6.5790000 -14.4560000   9.7260000  -9.8380000
 -13.9020000   8.8820000  -9.7960000 -14.1230000  10.7140000 -10.9300000
 -14.4430000  11.7020000 -10.6000000 -14.7080000  10.4730000 -12.2610000
 -14.6870000  11.3770000 -13.0850000 -12.5570000  10.8410000 -11.0690000
 -12.1410000   9.8510000 -11.2560000 -12.2220000  11.5200000 -11.8530000
 -11.7520000  11.3490000  -9.8140000 -12.0110000  10.7500000  -8.9410000
 -10.3060000  11.1910000 -10.0840000  -9.7650000  11.6180000  -9.2390000
 -10.0080000  11.7360000 -10.9790000 -10.0830000  10.1240000 -10.0990000
 -12.1820000  12.7850000  -9.4540000 -13.2260000  12.9380000  -9.1800000
 -11.8080000  13.3430000 -10.3130000 -11.5610000  13.0720000  -8.6060000
 -15.3240000   9.3070000 -12.5090000 -15.2300000   8.6540000 -11.7450000
 -15.9340000   8.8460000 -13.7840000 -15.4920000   9.4320000 -14.5900000
 -17.4230000   9.2740000 -14.0210000 -18.3150000   9.1220000 -13.1500000
 -15.7180000   7.2870000 -13.8910000 -14.6810000   7.2290000 -13.5590000
 -15.8360000   6.9080000 -14.9060000 -16.4940000   6.7980000 -13.3010000
 -17.7070000   9.6370000 -15.1630000  -7.2880000   5.2290000   1.3810000
  -7.9090000   6.4640000   1.6350000  -7.8250000   7.3940000   0.6750000
  -6.9270000   8.4510000   0.8410000  -6.7830000   9.3950000  -0.1440000
  -7.5420000   9.2770000  -1.2760000  -7.3450000  10.3020000  -2.3550000
  -8.2490000  11.0570000  -2.5840000  -6.0880000  10.4770000  -3.0230000
  -5.5600000   9.3750000  -3.6540000  -4.3240000   9.4890000  -4.2500000
  -3.6700000  10.6970000  -4.2090000  -4.1710000  11.7390000  -3.5910000
  -5.4130000  11.6320000  -3.0010000  -8.4680000   8.2590000  -1.4300000
  -9.2250000   8.2450000  -2.5380000  -8.6050000   7.3310000  -0.4430000
  -7.0417954   4.7393661   2.3347515  -7.9705034   4.5870502   0.8047278
  -6.3656761   5.3940120   0.8047278  -6.3336150   8.5266749   1.7641292
  -6.0736891  10.2274785  -0.0262816  -6.1124798   8.4242182  -3.6819300
  -3.8659481   8.6243037  -4.7524827  -2.6956183  10.7925960  -4.7104397
  -3.6096075  12.6837795  -3.5437752  -5.8549947  12.5088358  -2.5052181
  -9.8941661   7.5276771  -2.6712839  -9.3480261   6.5266227  -0.5473520
