
  648  0.0000000e+00
 -23.1330000   9.3640000   5.3100000 -22.8780000   9.5880000   4.3590000
 -22.5620000   9.7770000   6.0330000 -24.1320000   9.4720000   5.4130000
 -22.8450000   7.8990000   5.4290000 -21.8060000   7.7300000   5.7150000
 -23.2270000   7.2340000   4.1190000 -24.3090000   7.6200000   3.5650000
 -23.6160000   7.2640000   6.6200000 -23.4180000   7.7240000   7.5880000
 -24.6920000   7.3920000   6.5000000 -23.3840000   5.7820000   6.8530000
 -22.3070000   5.6640000   6.7360000 -23.8730000   5.2700000   6.0240000
 -23.9970000   5.2690000   8.1880000 -25.0730000   5.4410000   8.1770000
 -23.6640000   5.8030000   9.0780000 -23.8080000   3.7920000   8.3250000
 -23.1340000   3.3300000   7.7310000 -24.4370000   2.9460000   9.1210000
 -25.3620000   3.3650000   9.9510000 -25.8860000   2.7060000  10.5090000
 -25.6850000   4.3210000   9.9970000 -24.0240000   1.7520000   9.1000000
 -24.4410000   1.0280000   9.6690000 -23.3590000   1.4850000   8.3880000
 -22.5540000   6.1820000   3.6370000 -21.8360000   5.7920000   4.2310000
 -22.8300000   5.5540000   2.3530000 -23.0220000   6.2630000   1.5480000
 -23.7150000   4.9400000   2.5250000 -21.7130000   4.6130000   1.8910000
 -20.7110000   4.4230000   2.6320000 -21.9580000   4.0520000   0.6950000
 -22.7880000   4.3670000   0.2130000 -21.1600000   2.9920000   0.0380000
 -21.0840000   2.0810000   0.6320000 -19.7440000   3.3930000  -0.3300000
 -18.8050000   2.5660000  -0.4740000 -21.7690000   2.6030000  -1.3170000
 -22.8150000   2.3110000  -1.2210000 -21.8160000   3.4790000  -1.9630000
 -21.0940000   1.5850000  -2.2360000 -20.2630000   2.1150000  -2.7020000
 -20.8140000   0.7350000  -1.6140000 -22.0370000   0.9980000  -3.3100000
 -23.1260000   1.5760000  -3.6550000 -21.7450000  -0.1360000  -3.7450000
 -19.4820000   4.7020000  -0.2980000 -20.3130000   5.2760000  -0.2920000
 -18.2090000   5.3850000  -0.3720000 -17.7500000   5.1830000  -1.3390000
 -17.1790000   4.9360000   0.7110000 -15.9650000   4.9810000   0.5160000
 -18.5220000   6.8610000  -0.3460000 -18.8030000   7.1420000   0.6690000
 -19.4120000   7.0640000  -0.9430000 -17.3840000   7.7510000  -0.8880000
 -16.4710000   7.3960000  -0.4100000 -17.3440000   7.7150000  -1.9770000
 -17.6520000   9.2230000  -0.4660000 -17.9790000   9.2100000   0.5740000
 -18.4870000   9.6710000  -1.0050000 -16.3970000   9.9980000  -0.5900000
 -16.1150000  10.4350000  -1.4550000 -15.5180000  10.0920000   0.3830000
 -15.7440000   9.6470000   1.5650000 -15.0240000   9.4080000   2.2320000
 -16.6940000   9.3960000   1.7980000 -14.3030000  10.6110000   0.2450000
 -13.9720000  11.1150000  -0.5650000 -13.7420000  10.4080000   1.0600000
 -17.6450000   4.4800000   1.8690000 -18.6470000   4.4990000   1.9920000
 -16.8090000   3.8090000   2.9230000 -15.9540000   4.4350000   3.1800000
 -16.2450000   2.5010000   2.3720000 -15.0120000   2.2300000   2.5940000
 -17.7540000   3.6000000   4.1470000 -18.1940000   4.5540000   4.4390000
 -18.5310000   2.8870000   3.8720000 -16.9690000   2.9770000   5.3540000
 -16.5400000   2.0070000   5.1070000 -16.1920000   3.6740000   5.6700000
 -17.9670000   2.7790000   6.5460000 -18.6740000   1.9670000   6.3840000
 -18.5330000   3.6830000   6.7700000 -17.1450000   2.4070000   7.8130000
 -17.8030000   2.6930000   8.6330000 -16.1960000   2.9410000   7.8600000
 -16.8700000   0.9530000   7.9480000 -17.6020000   0.4740000   8.4530000
 -16.1600000   0.8010000   8.6500000 -16.8130000   0.4920000   7.0510000
 -16.9880000   1.6830000   1.6190000 -17.9560000   1.8430000   1.3790000
 -16.4970000   0.4650000   1.0010000 -16.1060000  -0.1600000   1.8030000
 -15.2940000   0.7410000   0.0260000 -14.1880000   0.2100000   0.2440000
 -17.6210000  -0.2890000   0.2890000 -17.8780000   0.2690000  -0.6110000
 -17.2070000  -1.2490000  -0.0200000 -18.8020000  -0.7030000   1.1580000
 -19.4220000   0.1550000   1.4150000 -19.5460000  -1.2500000   0.5800000
 -18.3840000  -1.3710000   2.4580000 -18.9790000  -1.0710000   3.5230000
 -17.3850000  -2.1150000   2.4040000 -15.5260000   1.6930000  -0.9080000
 -16.4470000   2.1030000  -0.9700000 -14.4210000   2.2090000  -1.7020000
 -14.0290000   1.3860000  -2.3000000 -13.2110000   2.7240000  -0.8800000
 -12.1120000   2.2200000  -1.0980000 -14.8550000   3.1850000  -2.7780000
 -15.7630000   2.8520000  -3.2820000 -15.0500000   4.1530000  -2.3170000
 -13.7510000   3.2800000  -3.8590000 -13.6540000   2.3040000  -4.3350000
 -12.8470000   3.7520000  -3.4730000 -14.1650000   4.2600000  -5.0210000
 -15.1690000   4.0360000  -5.3820000 -14.1430000   5.2820000  -4.6430000
 -13.1360000   4.1100000  -6.1730000 -13.1060000   3.1290000  -6.6470000
 -12.1480000   4.3910000  -5.8090000 -13.5050000   5.0520000  -7.2150000
 -13.3240000   6.0380000  -7.0910000 -13.0320000   4.7220000  -8.0440000
 -14.4960000   4.9270000  -7.3630000 -13.4910000   3.5730000   0.0670000
 -14.4470000   3.7970000   0.3070000 -12.4230000   4.1080000   0.9550000
 -11.7370000   4.7710000   0.4270000 -11.5530000   3.0500000   1.5660000
 -10.2950000   3.1150000   1.6210000 -13.0650000   4.9610000   1.9620000
 -13.4820000   5.7970000   1.4010000 -13.8950000   4.3570000   2.3300000
 -12.2500000   5.5660000   2.8940000 -12.3330000   5.1540000   3.7570000
 -12.2360000   1.9250000   1.9310000 -13.2450000   1.9700000   1.9500000
 -11.5850000   0.8530000   2.6440000 -10.8230000   1.1850000   3.3480000
 -10.7500000   0.0150000   1.6370000  -9.6600000  -0.3740000   2.0390000
 -12.6830000   0.0070000   3.3300000 -13.0920000   0.7220000   4.0440000
 -13.4010000  -0.3780000   2.6060000 -12.1310000  -1.1500000   4.0870000
 -11.4480000  -1.7670000   3.5040000 -11.6050000  -0.7360000   4.9470000
 -13.3030000  -2.0600000   4.5250000 -14.0270000  -1.5240000   5.1400000
 -13.8710000  -2.4870000   3.6990000 -12.7360000  -3.2680000   5.2450000
 -12.1720000  -2.9640000   6.1270000 -12.0300000  -3.7870000   4.5970000
 -13.8980000  -4.1420000   5.7260000 -13.5260000  -4.9690000   6.1700000
 -14.4510000  -4.3330000   4.9030000 -14.3910000  -3.5930000   6.4150000
 -11.2150000  -0.2050000   0.4090000 -12.1740000   0.0360000   0.2060000
 -10.3780000  -0.8460000  -0.6280000  -9.9810000  -1.7980000  -0.2730000
  -9.1430000   0.0130000  -0.9800000  -8.1280000  -0.5490000  -1.3300000
 -11.1400000  -1.1260000  -1.9680000 -11.5210000  -0.1890000  -2.3740000
 -10.4380000  -1.5770000  -2.6700000 -12.3660000  -2.0160000  -1.7010000
 -13.0200000  -1.5620000  -0.9570000 -11.9080000  -3.4230000  -1.2170000
 -11.4180000  -3.3500000  -0.2460000 -11.2480000  -3.9100000  -1.9350000
 -12.7640000  -4.0560000  -0.9860000 -13.1360000  -2.2470000  -2.9960000
 -14.1220000  -2.6550000  -2.7750000 -13.2670000  -1.3340000  -3.5770000
 -12.5880000  -2.8520000  -3.7180000  -9.2280000   1.3240000  -0.8150000
 -10.0010000   1.7960000  -0.3690000  -8.0640000   2.2030000  -1.1830000
  -7.7370000   1.9180000  -2.1830000  -6.9130000   2.0870000  -0.1940000
  -5.7420000   2.1110000  -0.5730000  -8.4590000   3.7270000  -1.2500000
  -8.8090000   4.0110000  -0.2580000  -9.6040000   3.9830000  -2.3370000
 -10.4160000   3.2750000  -2.1760000 -10.0830000   4.9470000  -2.1630000
  -7.3580000   4.7480000  -1.3730000  -7.7650000   5.7240000  -1.6370000
  -6.5910000   4.3860000  -2.0570000  -6.7990000   4.9720000  -0.4650000
  -9.3060000   3.9430000  -3.7760000  -8.4760000   4.5850000  -4.0710000
 -10.0610000   4.1110000  -4.5440000  -8.9740000   2.9070000  -3.8540000
  -7.2220000   1.9690000   1.1150000  -8.1960000   2.1510000   1.3130000
  -6.2900000   1.9320000   2.2330000  -5.5760000   2.7390000   2.0640000
  -5.4600000   0.6330000   2.2720000  -4.2460000   0.6420000   2.5420000
  -7.1800000   2.1130000   3.5000000  -7.6180000   3.1080000   3.4260000
  -7.9740000   1.3730000   3.4060000  -6.5740000   2.0650000   4.9060000
  -5.7680000   3.1230000   5.3420000  -5.5210000   3.9490000   4.6920000
  -6.8420000   0.9980000   5.7820000  -7.3330000   0.1380000   5.3510000
  -5.0860000   3.0240000   6.5350000  -4.4320000   3.8500000   6.7730000
  -6.1940000   0.8900000   7.0050000  -6.2200000  -0.0260000   7.5770000
  -5.3010000   1.9340000   7.4120000  -4.8400000   1.8990000   8.3880000
  -6.1570000  -0.4110000   1.8560000  -7.1350000  -0.2880000   1.6360000
  -5.6030000  -1.7480000   1.6200000  -4.9710000  -2.0280000   2.4640000
  -4.6090000  -1.7110000   0.4630000  -3.4620000  -2.0700000   0.6950000
  -6.6190000  -2.8240000   1.3920000  -7.3380000  -2.5100000   0.6360000
  -7.3900000  -3.2840000   2.6940000  -7.5930000  -2.3520000   3.2210000
  -6.6930000  -3.8840000   3.2790000  -5.9150000  -4.1260000   0.8750000
  -6.2600000  -5.0680000   1.3010000  -4.8830000  -4.1380000   1.2260000
  -6.0490000  -4.1680000  -0.2060000  -8.6700000  -4.0680000   2.4870000
  -8.5200000  -4.9720000   1.8980000  -9.4090000  -3.4570000   1.9700000
  -9.0320000  -4.1540000   3.5110000  -4.8820000  -1.1700000  -0.7390000
  -5.7920000  -0.7360000  -0.7960000  -3.9930000  -1.0170000  -1.9040000
  -3.5970000  -1.9470000  -2.3130000  -2.7760000  -0.1700000  -1.5420000
  -1.5990000  -0.4440000  -1.7760000  -4.7680000  -0.5140000  -3.1320000
  -5.3360000   0.3640000  -2.8230000  -5.8120000  -1.4950000  -3.7320000
  -6.4630000  -1.8430000  -2.9300000  -5.3740000  -2.3340000  -4.2720000
  -3.7680000  -0.0250000  -4.2320000  -3.1880000   0.8250000  -3.8720000
  -3.1070000  -0.8410000  -4.5220000  -4.2420000   0.4450000  -5.0940000
  -6.8490000  -0.8300000  -4.5820000  -7.3110000   0.0260000  -4.0880000
  -6.5150000  -0.6730000  -5.6080000  -7.7170000  -1.4860000  -4.6380000
  -3.0550000   1.0270000  -0.9410000  -4.0220000   1.2270000  -0.7310000
  -1.9710000   1.9780000  -0.5320000  -1.4420000   2.2880000  -1.4330000
  -0.9200000   1.3590000   0.3040000   0.2470000   1.6400000   0.0200000
  -2.5270000   3.2410000   0.0210000  -2.9950000   3.1010000   0.9950000
  -3.3230000   3.5470000  -0.6570000  -1.4750000   4.3610000   0.0570000
  -0.8400000   4.7260000  -1.0060000  -1.2870000   4.8510000   1.2230000
  -1.4020000   0.6000000   1.2320000  -2.4050000   0.5240000   1.3190000
  -0.5260000  -0.2280000   2.1570000   0.0930000   0.5000000   2.6810000
   0.3280000  -1.2180000   1.4540000   1.5610000  -1.1690000   1.5060000
  -1.4240000  -0.9250000   3.2020000  -2.2040000  -1.4800000   2.6800000
  -1.8580000  -0.1220000   3.7980000  -0.6110000  -1.7580000   4.0050000
  -0.2080000  -1.2670000   4.7250000  -0.3400000  -2.1120000   0.6810000
  -1.3470000  -2.0760000   0.7480000   0.2390000  -3.1890000  -0.1450000
   0.7240000  -3.9160000   0.5080000   1.2720000  -2.6230000  -1.1470000
   2.3260000  -3.2500000  -1.2180000  -0.8680000  -3.9320000  -0.9290000
  -0.3300000  -4.5720000  -1.6280000  -1.4790000  -3.2440000  -1.5130000
  -1.7400000  -4.9310000  -0.0640000  -1.0800000  -5.7260000   0.2840000
  -2.1110000  -4.3090000   0.7500000  -2.9320000  -5.5640000  -0.8560000
  -3.6710000  -4.8050000  -1.1130000  -2.6380000  -5.9640000  -1.8270000
  -3.6980000  -6.7520000  -0.2310000  -2.9870000  -7.5680000  -0.0950000
  -4.1330000  -6.5110000   0.7380000  -4.6980000  -7.2540000  -1.2030000
  -5.4230000  -6.5620000  -1.3280000  -5.1370000  -8.1120000  -0.9000000
  -4.2580000  -7.3520000  -2.1060000   1.0820000  -1.4680000  -1.7440000
   0.1960000  -0.9880000  -1.6770000   2.0850000  -0.8040000  -2.5900000
   2.4630000  -1.5730000  -3.2630000   3.2810000  -0.2570000  -1.7680000
   4.4380000  -0.4870000  -2.2320000   1.3980000   0.4000000  -3.3550000
   0.9230000   1.0320000  -2.6050000   0.2800000  -0.1080000  -4.2570000
  -0.3630000  -0.9360000  -3.9590000   0.6610000  -0.4490000  -5.2200000
   2.5620000   1.2840000  -4.0360000   3.1410000   0.6100000  -4.6670000
   3.2210000   1.7870000  -3.3280000   2.1930000   2.1830000  -4.5300000
  -0.5780000   1.0740000  -4.7190000  -1.3640000   0.6890000  -5.3690000
  -1.1080000   1.4050000  -3.8250000   0.1190000   1.8250000  -5.0910000
   3.1000000   0.3390000  -0.5760000   2.1720000   0.2800000  -0.1820000
   4.2330000   0.9120000   0.1280000   4.7950000   1.5220000  -0.5780000
   5.1560000  -0.1570000   0.7130000   6.3850000  -0.1690000   0.6390000
   3.6830000   1.8830000   1.2140000   3.0580000   1.4420000   1.9900000
   3.0490000   2.6150000   0.7140000   4.7150000   2.7910000   1.9790000
   4.7220000   4.1960000   1.6780000   4.1100000   4.6560000   0.9170000
   5.5800000   2.2560000   2.9200000   5.5900000   1.1910000   3.0990000
   5.6740000   5.0040000   2.3870000   5.8220000   6.0460000   2.1430000
   6.4750000   3.0980000   3.5990000   7.1420000   2.6820000   4.3390000
   6.5750000   4.4460000   3.3160000   7.3690000   5.0110000   3.7820000
   4.5580000  -1.2130000   1.2230000   3.5740000  -1.1110000   1.4250000
   5.2630000  -2.3820000   1.7070000   5.9240000  -2.1000000   2.5270000
   6.1720000  -3.0240000   0.6640000   7.3040000  -3.4110000   0.9860000
   4.2330000  -3.4730000   2.2190000   3.4730000  -3.6790000   1.4660000
   4.8180000  -4.3590000   2.4680000   3.4090000  -3.0640000   3.4770000
   2.9230000  -2.1060000   3.2930000   4.1940000  -2.9490000   4.7620000
   3.5440000  -2.8100000   5.6260000   4.9780000  -2.2180000   4.5640000
   4.6360000  -3.9400000   4.8610000   2.1670000  -3.9350000   3.7080000
   2.5260000  -4.9250000   3.9890000   1.4060000  -3.9680000   2.9290000
   1.5990000  -3.5340000   4.5480000   5.7120000  -3.1880000  -0.5940000
   4.7590000  -2.8680000  -0.7000000   6.4500000  -3.8020000  -1.7020000
   6.7620000  -4.8010000  -1.3970000   7.6340000  -2.9610000  -2.1620000
   8.6870000  -3.4440000  -2.5870000   5.5520000  -3.9510000  -2.9160000
   5.3670000  -3.0060000  -3.4260000   6.0700000  -4.5390000  -3.6740000
   4.2710000  -4.4570000  -2.6470000   3.6570000  -3.7730000  -2.3680000
   7.5620000  -1.6310000  -1.9420000   6.7100000  -1.2960000  -1.5140000
   8.7540000  -0.7180000  -2.0070000   9.3630000  -0.9920000  -2.8690000
   9.6820000  -0.7510000  -0.8300000  10.8710000  -0.6160000  -1.0570000
   8.2000000   0.6930000  -2.2500000   7.6710000   1.0600000  -1.3710000
   7.4460000   0.6420000  -3.0350000   9.1660000   1.8230000  -2.5460000
   9.5150000   2.0410000  -3.8540000   9.1430000   1.3490000  -4.5950000
   9.9130000   2.4370000  -1.5360000   9.7410000   2.2760000  -0.4820000
  10.5490000   2.9180000  -4.2240000  10.8450000   3.1590000  -5.2350000
  10.8620000   3.4420000  -1.8460000  11.2870000   4.0690000  -1.0760000
  11.2550000   3.5770000  -3.1930000  12.0270000   4.2710000  -3.4910000
   9.1810000  -1.0460000   0.4200000   8.1790000  -1.0860000   0.5400000
  10.1340000  -1.2270000   1.5890000  10.6490000  -0.2680000   1.6370000
  10.9910000  -2.4690000   1.3170000  12.2010000  -2.5690000   1.5560000
   9.3230000  -1.3750000   2.9020000   8.6030000  -0.5560000   2.9000000
   8.8110000  -2.3330000   2.8040000  10.2120000  -1.3920000   4.0040000
   9.6370000  -1.2470000   4.7590000  10.3150000  -3.5230000   0.7420000
   9.3150000  -3.4470000   0.6280000  11.0330000  -4.6820000   0.1630000
  11.5640000  -5.1400000   0.9970000  12.0390000  -4.3080000  -0.9740000
  13.0580000  -4.9780000  -1.0350000   9.9810000  -5.7650000  -0.3160000
   9.2310000  -5.2870000  -0.9460000   9.0810000  -6.3070000   0.8390000
   9.7740000  -6.7770000   1.5380000   8.7020000  -5.4530000   1.4000000
  10.6980000  -6.7780000  -1.1350000  10.9100000  -6.2720000  -2.0770000
  11.6060000  -7.1900000  -0.6960000  10.0900000  -7.6790000  -1.2140000
   8.0250000  -7.4020000   0.6520000   8.4480000  -8.3410000   0.2950000
   7.4230000  -7.6580000   1.5240000   7.3420000  -7.0110000  -0.1030000
  11.8630000  -3.2470000  -1.8210000  10.9550000  -2.8050000  -1.8340000
  12.8610000  -2.8100000  -2.7930000  13.1530000  -3.7430000  -3.2770000
  14.0690000  -2.2800000  -2.2150000  15.0870000  -2.8900000  -2.4920000
  12.2390000  -1.9600000  -3.8860000  11.4310000  -2.4930000  -4.3870000
  11.7470000  -1.1290000  -3.3800000  13.1310000  -1.4900000  -4.9870000
  13.5580000  -0.2150000  -5.2300000  13.3680000   0.6550000  -4.6180000
  13.7890000  -2.3110000  -5.9990000  14.4130000  -0.2060000  -6.3240000
  14.8940000   0.6180000  -6.6570000  14.5640000  -1.4630000  -6.8800000
  13.7800000  -3.6750000  -6.3090000  13.2400000  -4.4050000  -5.7230000
  15.2870000  -1.9700000  -7.9970000  15.8820000  -1.3120000  -8.6140000
  14.5250000  -4.2210000  -7.4110000  14.5630000  -5.2880000  -7.5740000
  15.2420000  -3.3590000  -8.2390000  15.8090000  -3.6560000  -9.1090000
  13.9570000  -1.3550000  -1.2360000  13.0680000  -0.8900000  -1.1180000
  15.0990000  -0.9740000  -0.4190000  15.7780000  -0.5270000  -1.1430000
  15.7520000  -2.0860000   0.3690000  16.9850000  -2.0120000   0.5400000
  14.7240000   0.1520000   0.6090000  13.8730000  -0.2620000   1.1500000
  15.5830000   0.3070000   1.2630000  14.2520000   1.5390000   0.0350000
  13.3560000   1.3190000  -0.5460000  13.9130000   2.0330000   0.9460000
  15.2540000   2.3050000  -0.7750000  15.6990000   1.4910000  -1.3460000
  15.9570000   2.8320000  -0.1300000  14.6610000   3.2850000  -1.6480000
  14.4330000   2.9370000  -2.5680000  14.5300000   4.5910000  -1.4310000
  14.6650000   5.1810000  -0.2810000  14.8550000   6.1710000  -0.2240000
  14.9070000   4.6690000   0.5560000  14.2420000   5.2760000  -2.4560000
  14.0680000   6.2650000  -2.3530000  14.1430000   4.8250000  -3.3540000
  14.9450000  -3.0560000   0.9120000  13.9470000  -2.9790000   0.7730000
  15.4200000  -4.2020000   1.6550000  15.9570000  -3.7540000   2.4910000
  16.3330000  -5.1820000   0.8220000  17.4060000  -5.6000000   1.2770000
  14.2730000  -5.0270000   2.3170000  13.4840000  -5.1040000   1.5690000
  13.9240000  -4.4280000   3.1580000  14.7100000  -6.3700000   2.9020000
  15.4640000  -6.4540000   4.1270000  15.7530000  -5.5010000   4.5440000
  14.2800000  -7.5930000   2.3250000  13.7020000  -7.6180000   1.4130000
  15.8680000  -7.6800000   4.6870000  16.3840000  -7.8120000   5.6270000
  14.5960000  -8.7910000   2.9670000  14.2340000  -9.7100000   2.5300000
  15.4980000  -8.9070000   4.0690000  15.7610000  -9.8350000   4.5560000
  15.9830000  -5.2840000  -0.4490000  15.1250000  -4.8100000  -0.6900000
  16.7220000  -6.0230000  -1.4880000  16.8500000  -7.0380000  -1.1110000
  18.0820000  -5.4330000  -1.8310000  19.0360000  -6.1880000  -1.8960000
  15.8240000  -6.2570000  -2.7050000  15.0360000  -6.9440000  -2.3970000
  15.3730000  -5.2810000  -2.8830000  16.5410000  -6.7020000  -4.0250000
  17.3570000  -7.3810000  -3.7790000  15.6090000  -7.5140000  -4.9290000
  15.1400000  -8.3420000  -4.3980000  14.7720000  -6.9060000  -5.2720000
  16.1390000  -8.0050000  -5.7440000  17.0930000  -5.6210000  -4.8800000
  17.8090000  -4.9640000  -4.3870000  17.6170000  -6.0100000  -5.7530000
  16.2300000  -5.0040000  -5.1320000  18.1040000  -4.1410000  -2.0910000
  17.2680000  -3.5790000  -2.0200000  19.2870000  -3.4250000  -2.5080000
  19.6950000  -3.9930000  -3.3440000  20.3220000  -3.6410000  -1.3290000
  21.5020000  -3.9340000  -1.5280000  19.0570000  -1.9450000  -2.9150000
  18.6580000  -1.4150000  -2.0500000  18.0560000  -1.7750000  -4.0770000
  17.1330000  -2.2850000  -3.8030000  18.3600000  -2.3050000  -4.9790000
  20.4310000  -1.2070000  -3.0740000  20.2910000  -0.1380000  -3.2370000
  20.9440000  -1.5990000  -3.9520000  20.9990000  -1.2290000  -2.1430000
  17.7600000  -0.3390000  -4.3830000  17.4720000   0.2000000  -3.4800000
  18.6360000   0.1390000  -4.8210000  16.9830000  -0.3480000  -5.1470000
  19.9230000  -3.4970000  -0.0610000  18.9880000  -3.1350000   0.0640000
  20.8000000  -3.6830000   1.1470000  21.6750000  -3.0540000   0.9800000
  21.1650000  -5.1480000   1.3920000  22.2140000  -5.3920000   1.9950000
  19.9300000  -3.1940000   2.3420000  18.9800000  -3.7230000   2.4090000
  20.4950000  -3.3700000   3.2580000  19.6630000  -1.6800000   2.3500000
  19.1740000  -1.3650000   1.4280000  20.8500000  -0.7190000   2.5910000
  21.6770000  -1.0040000   1.9420000  21.2140000  -0.8130000   3.6140000
  20.4960000   0.3100000   2.5240000  18.6410000  -1.4130000   3.4610000
  18.2870000  -0.3850000   3.3880000  18.9180000  -1.6610000   4.4860000
  17.7180000  -1.9170000   3.1740000  20.3960000  -6.1720000   0.8780000
  19.5820000  -5.8190000   0.3960000  20.8790000  -7.5980000   0.6660000
  21.3860000  -7.9020000   1.5820000  21.8320000  -7.7780000  -0.5210000
  22.5500000  -8.7380000  -0.4490000  19.7180000  -8.5400000   0.5350000
  20.1100000  -9.4900000   0.1710000  18.9660000  -8.2470000  -0.1980000
  18.9420000  -8.8360000   1.8380000  18.4240000  -7.9640000   2.2360000
  19.7780000  -9.4650000   2.9660000  20.5180000  -8.8240000   3.4440000
  19.1080000  -9.7910000   3.7620000  20.3380000 -10.3230000   2.5930000
  17.8190000  -9.8340000   1.5110000  17.2680000  -9.4250000   0.6630000
  17.2800000  -9.9720000   2.4480000  18.0680000 -10.8650000   1.2580000
  21.9200000  -6.8740000  -1.5040000  21.2700000  -6.1010000  -1.5080000
  22.9030000  -6.8720000  -2.5920000  23.1080000  -7.9350000  -2.7220000
  24.1890000  -6.0420000  -2.3030000  25.0490000  -5.9860000  -3.1780000
  22.1660000  -6.3280000  -3.8300000  22.5050000  -5.3400000  -4.1400000
  21.1160000  -6.2640000  -3.5460000  22.0840000  -7.2150000  -5.0580000
  23.0650000  -7.0630000  -5.5090000  21.9930000  -8.2540000  -4.7430000
  21.0080000  -6.8810000  -6.0800000  20.8060000  -7.6810000  -6.7920000
  20.0460000  -6.7190000  -5.5930000  21.3060000  -5.6510000  -6.8600000
  20.7020000  -4.8500000  -6.7420000  22.2210000  -5.5280000  -7.7970000
  23.0150000  -6.4800000  -8.1970000  22.9280000  -7.3730000  -7.7330000
  23.6620000  -6.2700000  -8.9440000  22.3390000  -4.4360000  -8.4940000
  22.9550000  -4.3870000  -9.2930000  21.7430000  -3.6360000  -8.3420000
  24.2320000  -5.3620000  -1.1770000  23.4350000  -5.4860000  -0.5690000
  25.2950000  -4.3980000  -0.8310000  25.6410000  -3.8310000  -1.6940000
  26.5220000  -5.1060000  -0.3070000  27.6140000  -4.5850000  -0.5260000
  24.7010000  -3.4370000   0.1720000  24.3600000  -3.9920000   1.0460000
  23.9240000  -2.8150000  -0.2740000  25.7130000  -2.5750000   0.5520000
  26.4950000  -2.6080000  -0.0030000  26.3750000  -6.2950000   0.1090000
 -12.2960000  12.0250000  -1.3080000 -12.0170000  11.4950000  -2.6780000
 -11.8220000  10.0320000  -2.7050000 -11.4100000   9.5190000  -4.0380000
 -11.0560000   8.0410000  -4.0150000 -12.0710000   7.1640000  -3.3140000
 -11.6060000   6.5560000  -2.0410000  -9.8130000   7.9100000  -3.3270000
  -8.7190000   7.7720000  -4.1030000  -8.8240000   7.3760000  -5.2180000
  -7.4360000   8.1850000  -3.4260000  -6.5010000   7.0680000  -3.1340000
  -5.4900000   6.7630000  -4.2120000  -5.7850000   6.7700000  -5.5370000
  -4.8500000   6.5240000  -6.5070000  -3.5650000   6.2420000  -6.1780000
  -2.6650000   6.0150000  -7.1800000  -1.2810000   6.0300000  -6.8170000
  -3.2360000   6.2060000  -4.8340000  -4.1970000   6.4440000  -3.8730000
 -11.9217783  11.3141130  -0.5566028 -11.7909865  12.9937696  -1.1797547
 -13.3804912  12.1570303  -1.1797547 -12.8660931  11.7469783  -3.3303403
 -11.0803937  11.9568766  -3.0235991 -11.0430729   9.7698899  -1.9738564
 -12.7900803   9.5694014  -2.4624651 -12.2388511   9.6711969  -4.7449950
 -10.5086699  10.0714038  -4.3420626 -11.0196880   7.7024194  -5.0609659
 -12.9576153   7.7771258  -3.0949337 -12.2755750   6.3262388  -3.9968654
 -12.0311591   7.1119069  -1.1923498 -11.9346600   5.5073004  -1.9939711
 -10.5078296   6.5985441  -1.9939711  -7.2104583   9.2304637  -3.1688298
  -6.5429531   6.5000375  -2.1929057  -6.8194740   6.9823812  -5.8448274
  -5.1450439   6.5555558  -7.5662230  -1.1894353   6.0309924  -5.7208180
  -0.7850726   5.1371772  -7.2255626  -0.8045399   6.9333617  -7.2255626
  -2.2018841   5.9862640  -4.5301571  -3.9216190   6.3768021  -2.8101502
