
  474  0.0000000e+00
   1.2700000 -10.2600000   0.5900000   2.1800000 -10.5600000   0.2700000
   1.0300000  -9.5600000  -0.0900000   0.5600000 -10.9700000   0.5000000
   1.3600000  -9.5600000   1.9000000   1.7400000 -10.3100000   2.5900000
   0.0500000  -9.1400000   2.3500000  -0.9000000  -8.8500000   1.5800000
   2.3100000  -8.3700000   1.7300000   2.8700000  -8.4800000   0.8100000
   3.0600000  -8.5000000   2.5000000   1.7100000  -6.9800000   1.8800000
   1.4000000  -6.1700000   0.7500000   1.6300000  -6.4600000  -0.2600000
   1.4200000  -6.4500000   3.1700000   1.5500000  -7.1400000   3.9900000
   0.8800000  -4.9000000   0.9000000   0.6200000  -4.2500000   0.0800000
   0.9300000  -5.1300000   3.2800000   0.8300000  -4.6800000   4.2500000
   0.6800000  -4.3400000   2.1800000   0.3600000  -3.1000000   2.4000000
   0.3700000  -2.8000000   3.3100000  -0.2000000  -9.1000000   3.6800000
   0.6000000  -9.3200000   4.2600000  -1.4900000  -9.0000000   4.4100000
  -2.2200000  -8.6100000   3.7000000  -1.3000000  -8.1300000   5.6000000
  -0.5200000  -8.3400000   6.5500000  -1.8700000 -10.4200000   4.8600000
  -1.0900000 -10.7500000   5.5400000  -1.8700000 -11.2600000   3.7200000
  -0.9500000 -11.3300000   3.4600000  -3.3000000 -10.4900000   5.4100000
  -3.3800000 -11.5100000   5.7800000  -3.3200000  -9.7900000   6.2500000
  -4.1400000 -10.3000000   4.7500000  -2.0600000  -7.0500000   5.6400000
  -2.7400000  -6.9300000   4.8900000  -2.1500000  -6.0600000   6.6900000
  -1.7700000  -6.5500000   7.5800000  -3.6300000  -5.5900000   6.9700000
  -4.4300000  -5.4000000   6.0500000  -1.1900000  -4.8800000   6.3300000
  -0.1900000  -5.2300000   6.0700000  -1.7300000  -4.3700000   5.5300000
  -0.9400000  -3.9900000   7.5900000  -1.4600000  -4.2700000   8.7300000
  -0.2600000  -2.9300000   7.3600000  -3.9900000  -5.3500000   8.2700000
  -3.2200000  -5.4100000   8.9200000  -5.2200000  -4.8200000   8.7900000
  -5.3400000  -3.7800000   8.4800000  -5.0200000  -4.7000000   9.8600000
  -6.4500000  -5.7000000   8.5600000  -7.6100000  -5.2100000   8.6800000
  -6.2800000  -6.9500000   8.0300000  -5.3300000  -7.3100000   8.0600000
  -7.3000000  -7.7400000   7.3900000  -6.9800000  -8.7800000   7.4300000
  -8.2300000  -7.5500000   7.9200000  -7.5000000  -7.6100000   5.8700000
  -8.2500000  -8.4700000   5.3300000  -6.6900000  -6.8000000   5.1500000
  -5.9700000  -6.3900000   5.7300000  -6.5400000  -6.6700000   3.7100000
  -7.4900000  -7.0400000   3.3300000  -5.3700000  -7.5300000   3.1900000
  -4.3500000  -7.5800000   3.9300000  -6.4400000  -5.2300000   3.4000000
  -6.5900000  -5.2000000   2.3200000  -5.4000000  -4.9700000   3.5700000
  -7.3300000  -4.1600000   4.2000000  -8.3700000  -4.4700000   4.2100000
  -6.9500000  -3.9800000   5.2000000  -7.3200000  -2.8700000   3.4300000
  -6.2700000  -2.5700000   3.4100000  -7.6600000  -2.9400000   2.3900000
  -8.1100000  -1.8700000   4.1500000  -8.6500000  -2.2000000   4.9400000
  -8.2300000  -0.5800000   3.7300000  -7.6800000  -0.1100000   2.7300000
  -7.7800000   0.8800000   2.5400000  -7.0900000  -0.6800000   2.1400000
  -9.0500000   0.1700000   4.4400000  -9.1100000   1.1700000   4.3200000
  -9.6000000  -0.3600000   5.1100000  -5.4600000  -8.1100000   1.9300000
  -6.3000000  -7.9400000   1.3900000  -4.3800000  -8.8700000   1.2600000
  -3.4800000  -8.6000000   1.8100000  -4.0900000  -8.4300000  -0.2600000
  -4.9000000  -7.9300000  -1.0000000  -4.6900000 -10.3400000   1.4400000
  -5.1000000 -10.5100000   2.4300000  -5.3300000 -10.7500000   0.6600000
  -3.4200000 -10.9700000   1.2700000  -2.8900000 -10.9300000   2.0700000
  -2.8300000  -8.6700000  -0.6500000  -2.2500000  -9.2100000  -0.0300000
  -2.1000000  -7.8800000  -1.7200000  -2.7700000  -7.6900000  -2.5600000
  -0.8800000  -8.5900000  -2.2100000  -0.5800000  -9.6200000  -1.6600000
  -1.6500000  -6.5600000  -0.9900000  -1.0200000  -5.9400000  -1.6300000
  -1.1200000  -6.8900000  -0.0900000  -2.8100000  -5.7300000  -0.5700000
  -3.7100000  -5.1900000  -1.5100000  -3.6500000  -5.4300000  -2.5600000
  -2.9000000  -5.2700000   0.7700000  -2.1700000  -5.7100000   1.4300000
  -4.6800000  -4.2200000  -1.1400000  -5.3500000  -3.7900000  -1.8600000
  -3.9200000  -4.4300000   1.2200000  -3.9900000  -4.0400000   2.2300000
  -4.7800000  -3.8700000   0.2700000  -5.4400000  -3.0800000   0.6100000
  -0.1400000  -7.9800000  -3.2100000  -0.5700000  -7.1200000  -3.5100000
   1.1100000  -8.3500000  -3.8900000   1.1400000  -9.4000000  -4.1400000
   2.2300000  -8.1900000  -2.8100000   2.3200000  -8.9900000  -1.8700000
   1.1900000  -7.4300000  -5.1100000   0.3300000  -7.5900000  -5.7600000
   2.1200000  -7.6600000  -5.6300000   1.1000000  -6.3700000  -4.8500000
   3.1100000  -7.1700000  -2.9100000   3.0700000  -6.5000000  -3.6600000
   4.3100000  -7.1200000  -1.9600000   4.3300000  -7.9100000  -1.2100000
   4.4000000  -5.8100000  -1.2800000   4.0000000  -4.7500000  -1.8300000
   5.6000000  -7.3400000  -2.7700000   5.7400000  -6.6500000  -3.6100000
   6.8200000  -7.3000000  -1.8600000   6.8600000  -8.1500000  -1.1800000
   7.7200000  -7.3900000  -2.4600000   6.9600000  -6.4100000  -1.2400000
   5.5500000  -8.7900000  -3.3100000   6.5200000  -9.1200000  -3.6800000
   5.1800000  -9.4700000  -2.5400000   4.8600000  -8.7900000  -4.1500000
   4.6500000  -5.8500000   0.0600000   4.6500000  -6.7900000   0.4300000
   4.6500000  -4.6300000   0.9000000   3.7000000  -4.1400000   0.6900000
   5.8600000  -3.6800000   0.6600000   5.6100000  -2.4900000   0.7200000
   4.6700000  -5.0600000   2.3900000   5.6800000  -5.3900000   2.6200000
   3.9600000  -5.8500000   2.6200000   4.4000000  -3.9100000   3.3300000
   5.2000000  -3.1800000   3.3000000   3.4800000  -3.4200000   3.0000000
   4.2400000  -4.5300000   4.7700000   3.5100000  -5.3300000   4.7300000
   5.1300000  -4.9100000   5.2800000   3.5500000  -3.5400000   5.7200000
   2.5800000  -3.2500000   5.3100000   3.4300000  -4.0300000   6.6900000
   4.4300000  -2.3800000   5.9500000   5.1000000  -2.4900000   6.6900000
   3.9000000  -1.5300000   6.1200000   5.0300000  -2.0100000   5.2300000
   7.0600000  -4.1600000   0.3300000   7.1200000  -5.1600000   0.4800000
   8.2900000  -3.4300000   0.1300000   8.7400000  -3.4100000   1.1200000
   7.9900000  -2.0500000  -0.5700000   8.3000000  -1.0200000   0.0400000
   9.2200000  -4.2300000  -0.8300000  10.1000000  -3.6000000  -1.0200000
   9.4900000  -5.1700000  -0.3400000   8.7300000  -4.4700000  -1.7700000
   7.4000000  -2.2200000  -1.7200000   7.1900000  -3.1800000  -1.9900000
   7.0100000  -1.2300000  -2.6900000   7.7700000  -0.4600000  -2.8400000
   5.7600000  -0.4100000  -2.3200000   5.7600000   0.7900000  -2.5900000
   6.7800000  -2.0700000  -3.9500000   7.7500000  -2.2900000  -4.4100000
   6.1000000  -1.4800000  -4.5700000   6.2400000  -3.0000000  -3.7900000
   4.7100000  -0.9400000  -1.6200000   4.7900000  -1.9100000  -1.3600000
   3.5900000  -0.1500000  -1.0300000   3.1200000   0.5200000  -1.7500000
   4.0600000   0.7400000   0.0600000   3.6200000   1.8800000   0.1400000
   2.4100000  -1.0100000  -0.6000000   2.8000000  -1.8900000  -0.0900000
   1.3600000  -0.3300000   0.2500000   1.8400000   0.0900000   1.1400000
   1.0500000   0.5600000  -0.3000000   0.4900000  -0.9300000   0.4800000
   1.7400000  -1.5600000  -1.8600000   0.7800000  -2.0500000  -1.6900000
   1.6200000  -0.6900000  -2.5100000   2.3700000  -2.3200000  -2.3100000
   5.0700000   0.3700000   0.8800000   5.4000000  -0.5700000   0.7200000
   5.6300000   1.1500000   1.9400000   4.7800000   1.4700000   2.5400000
   6.3300000   2.4000000   1.3300000   6.0800000   3.5600000   1.6300000
   6.6000000   0.3200000   2.7600000   7.2200000   1.0200000   3.3200000
   7.3000000  -0.2400000   2.1400000   5.9600000  -0.5700000   3.7800000
   4.6900000  -0.4700000   4.0000000   6.6000000  -1.4200000   4.4000000
   7.3000000   2.1400000   0.4600000   7.5400000   1.1700000   0.3400000
   8.1100000   3.1000000  -0.2500000   8.5100000   3.6800000   0.5700000
   7.2500000   4.0500000  -1.1100000   7.6600000   5.2000000  -1.3600000
   9.2400000   2.3600000  -1.0100000   9.8500000   1.7300000  -0.3600000
   8.7700000   1.7100000  -1.7500000  10.1700000   3.3000000  -1.8000000
   9.6400000   4.0900000  -2.3300000  10.8500000   3.8400000  -1.1300000
  10.9000000   2.4900000  -2.9500000  10.2700000   2.2500000  -4.0400000
  12.0700000   2.0300000  -2.7500000   6.0300000   3.7000000  -1.5900000
   5.6400000   2.8500000  -1.1800000   5.0900000   4.5300000  -2.2800000
   5.6800000   5.0000000  -3.0600000   4.4000000   5.6400000  -1.4300000
   4.4900000   6.8900000  -1.6700000   4.1300000   3.5700000  -2.9600000
   3.6000000   4.2800000  -3.6000000   3.4400000   3.1100000  -2.2600000
   4.5900000   2.7700000  -3.5500000   3.7500000   5.2400000  -0.3500000
   3.6600000   4.2400000  -0.3000000   3.2700000   6.1000000   0.7700000
   2.5000000   6.7600000   0.3600000   4.4500000   7.0300000   1.2700000
   4.2000000   8.2500000   1.2600000   2.6800000   5.2500000   1.8100000
   3.4800000   4.5900000   2.1500000   1.5200000   4.3500000   1.4100000
   0.6100000   4.9000000   1.1800000   1.6100000   3.8000000   0.4700000
   2.3600000   6.2200000   3.0200000   1.8700000   5.8000000   3.9000000
   3.3000000   6.6500000   3.3600000   1.7300000   7.0100000   2.6200000
   1.0500000   3.3300000   2.4100000   0.0400000   3.0000000   2.1800000
   0.9800000   3.7600000   3.4100000   1.7600000   2.5000000   2.3300000
   5.6200000   6.4700000   1.5900000   5.7500000   5.4700000   1.5700000
   6.7600000   7.2400000   2.1000000   6.3900000   7.6900000   3.0200000
   7.3700000   8.3000000   1.2000000   7.7900000   9.3800000   1.6800000
   7.7300000   6.2000000   2.5800000   8.0600000   5.4200000   1.8900000
   8.5700000   6.5900000   3.1500000   7.2500000   5.5500000   3.3200000
   7.5100000   7.9900000  -0.1000000   7.2000000   7.1000000  -0.4900000
   8.0400000   8.9000000  -1.2000000   8.9900000   9.3600000  -0.9200000
   7.0800000   9.9800000  -1.6400000   7.3800000  10.7800000  -2.5500000
   8.4500000   7.9600000  -2.3600000   7.5700000   7.5800000  -2.8700000
   9.1000000   8.6100000  -2.9500000   9.0500000   7.0900000  -2.1300000
   5.8500000   9.8600000  -1.2000000   5.6200000   9.1400000  -0.5300000
   4.8700000  10.8700000  -1.4000000   5.2500000  11.9000000  -1.4000000
   4.1300000  10.7100000  -0.6200000   4.2300000  10.7800000  -2.7700000
   3.9300000  11.7700000  -3.4300000   4.1700000   9.5600000  -3.3100000
   4.5200000   8.7300000  -2.8400000   3.4000000   9.2700000  -4.5400000
   3.3800000  10.1300000  -5.2200000   1.9300000   8.8000000  -4.4200000
   1.1900000   8.5700000  -5.4300000   4.1200000   8.0800000  -5.3300000
   4.0400000   7.1800000  -4.7200000   3.6500000   7.9500000  -6.3000000
   5.6700000   8.2500000  -5.5500000   6.2000000   8.3100000  -4.6000000
   6.0900000   6.9900000  -6.2600000   5.2800000   6.6400000  -6.9000000
   6.1600000   6.2100000  -5.5000000   7.0500000   7.0500000  -6.7700000
   5.9700000   9.3500000  -6.4700000   5.3600000   9.3000000  -7.3700000
   5.8000000  10.3000000  -5.9700000   7.0400000   9.2300000  -6.6900000
   1.4700000   8.6300000  -3.1600000   2.1100000   8.7800000  -2.3900000
   0.1000000   8.3000000  -2.6300000  -0.6500000   8.8800000  -3.1800000
   0.0300000   8.7900000  -1.2000000   1.0400000   9.2900000  -0.7700000
  -0.2800000   6.7500000  -2.7100000  -1.1700000   6.5500000  -2.1100000
  -0.6100000   6.3500000  -4.1700000  -1.0900000   5.3700000  -4.1300000
   0.2800000   6.1300000  -4.7500000  -1.3400000   7.0200000  -4.6300000
   0.8400000   5.8400000  -2.1300000   0.4900000   4.8100000  -2.0900000
   1.7700000   5.8600000  -2.7000000   0.9100000   6.0100000  -1.0500000
  -1.0800000   8.6700000  -0.5100000  -1.9000000   8.3600000  -1.0200000
  -1.0500000   8.9300000   0.9600000  -0.0300000   9.1600000   1.2600000
  -1.5900000   7.7700000   1.7900000  -1.4100000   7.8000000   2.9600000
  -1.8400000  10.1600000   1.3100000  -1.7200000  10.3000000   2.3900000
  -3.2200000  10.1300000   0.9600000  -3.3400000   9.2900000   0.4900000
  -1.3600000  11.4200000   0.5900000  -0.3000000  11.4900000   0.8300000
  -1.4900000  11.3900000  -0.5000000  -1.8800000  12.3000000   0.9700000
  -2.1100000   6.7300000   1.1500000  -2.3100000   6.8000000   0.1600000
  -2.7200000   5.5300000   1.6800000  -2.0200000   5.1400000   2.4200000
  -2.9500000   4.4200000   0.5800000  -2.9700000   4.6800000  -0.6100000
  -3.9600000   5.7700000   2.4800000  -3.9800000   5.0300000   3.2800000
  -3.8600000   6.7200000   3.0000000  -5.1400000   5.8000000   1.5600000
  -5.4900000   6.6900000   1.6200000  -3.2900000   3.2200000   0.9800000
  -3.3700000   3.1100000   1.9800000  -3.6100000   2.0600000   0.1000000
  -2.8700000   1.9900000  -0.7000000  -4.9200000   2.3700000  -0.6500000
  -5.2000000   1.9100000  -1.8000000  -3.8100000   0.7800000   0.8900000
  -4.6300000   0.1700000   0.5100000  -3.9500000   0.8900000   1.9600000
  -2.5400000  -0.0800000   0.8600000  -1.6300000   0.4200000   1.2000000
  -2.6600000  -1.3800000   1.5900000  -2.0700000  -2.2000000   1.1900000
  -2.3300000  -1.3300000   2.6300000  -3.6600000  -1.8100000   1.5200000
  -2.2600000  -0.6400000  -0.5100000  -3.1400000  -1.0400000  -1.0000000
  -1.5200000  -1.4400000  -0.5500000  -1.9300000   0.1200000  -1.2200000
  -5.8900000   3.1300000  -0.0900000  -5.7800000   3.5800000   0.8100000
  -7.0600000   3.6500000  -0.7300000  -7.5700000   2.7800000  -1.1600000
  -6.8100000   4.5300000  -1.9500000  -7.7200000   4.7700000  -2.7300000
  -7.9900000   4.3400000   0.2600000  -8.8100000   4.8800000  -0.2100000
  -7.4900000   5.1300000   0.8300000  -8.6500000   3.4200000   1.2800000
  -7.9800000   2.5000000   1.8900000  -9.9200000   3.4800000   1.4100000
  -5.5200000   5.0700000  -2.0800000  -4.8600000   4.8200000  -1.3500000
  -5.0800000   5.9300000  -3.2100000  -5.9000000   6.4600000  -3.6800000
  -4.4300000   5.1000000  -4.2900000  -4.5000000   5.4000000  -5.4600000
  -4.1200000   7.0200000  -2.7100000  -3.9000000   7.6400000  -3.5800000
  -3.1500000   6.6300000  -2.4000000  -4.6700000   8.0300000  -1.6900000
  -5.7400000   8.6500000  -2.0400000  -4.2300000   8.0700000  -0.5300000
  -3.7500000   4.0500000  -3.8600000  -3.8000000   3.8500000  -2.8800000
  -2.9900000   3.1800000  -4.7600000  -2.1500000   3.7900000  -5.0800000
  -3.7100000   2.5500000  -5.9500000  -4.8100000   1.9900000  -5.7900000
  -2.3600000   2.0700000  -3.9500000  -1.9400000   2.4700000  -3.0300000
  -3.1500000   1.4200000  -3.5800000  -1.1900000   1.3400000  -4.6400000
   0.1400000   1.6800000  -4.2000000   0.1700000   2.3400000  -3.3400000
  -1.2900000   0.3500000  -5.5800000  -2.2400000  -0.0500000  -5.8900000
   1.2900000   1.2600000  -4.8700000   2.2500000   1.6400000  -4.5700000
  -0.1500000  -0.2600000  -6.1400000  -0.1700000  -1.0600000  -6.8700000
   1.1300000   0.2100000  -5.7800000   1.9800000  -0.3700000  -6.1300000
  -3.1200000   2.7300000  -7.1600000  -2.2500000   3.2400000  -7.1400000
  -3.6400000   2.2900000  -8.4200000  -4.7100000   2.0900000  -8.2900000
  -3.0800000   0.9000000  -8.8400000  -1.9100000   0.7500000  -9.1300000
  -3.4500000   3.3600000  -9.5300000  -2.5400000   3.9200000  -9.3100000
  -3.3600000   2.7900000 -10.4600000  -4.6100000   4.3600000  -9.6900000
  -5.6200000   4.2300000  -8.9600000  -4.4800000   5.3100000 -10.5300000
  -3.9800000  -0.0500000  -8.7900000  -4.9000000   0.2000000  -8.4500000
  -3.7200000  -1.4500000  -9.1200000  -2.6400000  -1.5700000  -8.9700000
  -4.1400000  -1.7900000 -10.5900000  -5.3400000  -1.6800000 -10.8200000
  -4.3800000  -2.4100000  -8.0500000  -5.4600000  -2.3600000  -8.1300000
  -4.1600000  -3.4600000  -8.2700000  -4.0300000  -2.1500000  -6.6400000
  -4.7700000  -1.3700000  -5.8500000  -5.6200000  -0.7800000  -6.1800000
  -2.8800000  -2.6100000  -5.8400000  -4.2500000  -1.4400000  -4.5300000
  -4.8100000  -1.0900000  -3.7700000  -3.1500000  -2.2800000  -4.4700000
  -1.7300000  -3.4100000  -6.1000000  -1.4600000  -3.6900000  -7.1000000
  -2.3600000  -2.7400000  -3.4500000  -2.6700000  -2.6000000  -2.4200000
  -0.8300000  -3.8100000  -5.0800000   0.0200000  -4.4400000  -5.2900000
  -1.1800000  -3.5300000  -3.7400000  -0.6200000  -3.9300000  -2.9000000
  -3.2600000  -2.2100000 -11.4400000  -9.8850000   7.6240000   4.2590000
  -9.4160000   6.7010000   5.2690000  -8.3870000   5.8540000   4.9760000
  -7.3440000   5.6080000   5.8650000  -6.3190000   4.7470000   5.5160000
  -6.3310000   4.1110000   4.2870000  -5.2360000   3.1690000   3.9000000
  -4.3550000   3.5460000   3.1570000  -5.1970000   1.7840000   4.4160000
  -4.0020000   1.2620000   4.9020000  -3.9700000  -0.0390000   5.3960000
  -5.1050000  -0.8380000   5.3800000  -6.2810000  -0.3240000   4.8560000
  -6.3300000   0.9860000   4.3780000  -7.3760000   4.3550000   3.3860000
  -7.3730000   3.7280000   2.1700000  -8.3970000   5.2340000   3.7460000
 -10.3319562   8.5036175   4.7453159  -9.0391588   7.9420323   3.6317775
 -10.6405707   7.1283138   3.6317775  -7.3350036   6.1002095   6.8486915
  -5.4913942   4.5672551   6.2179689  -3.0879727   1.8739769   4.8958085
  -3.0310255  -0.4400269   5.8052729  -5.0717750  -1.8633107   5.7770317
  -7.1821969  -0.9535260   4.8167422  -7.2697980   1.3864723   3.9700763
  -8.1065140   3.8933326   1.5260107  -9.2177016   5.4340350   3.0414187
