
  315  0.0000000e+00
   6.4150000   4.1440000  -0.0950000   7.0860000   4.3240000  -0.8280000
   5.7230000   3.5170000  -0.4790000   6.8550000   3.7650000   0.7320000
   5.9890000   5.4840000   0.5090000   6.9080000   5.9340000   0.8850000
   5.1550000   5.1260000   1.7610000   4.5590000   4.0610000   1.8400000
   5.1900000   6.4300000  -0.4350000   4.3340000   5.8690000  -0.8080000
   4.7890000   7.3180000   0.0530000   5.9570000   6.9140000  -1.6670000
   7.1860000   6.5570000  -1.7140000   5.3610000   7.7030000  -2.4440000
   4.9390000   6.0450000   2.7460000   5.4490000   6.9160000   2.7020000
   3.9020000   5.9320000   3.8010000   4.1680000   5.0850000   4.4330000
   3.9150000   6.8690000   4.3580000   2.4580000   5.6680000   3.3270000
   2.0420000   6.1460000   2.2630000   1.6600000   5.0240000   4.1310000
   2.1430000   4.5400000   4.8750000   0.2430000   4.6830000   3.9380000
   0.0930000   4.2410000   2.9530000  -0.3300000   5.6000000   4.0720000
  -0.2040000   3.7040000   5.0660000   0.6260000   2.9950000   5.6670000
  -1.5300000   3.5800000   5.2490000  -2.0950000   4.2110000   4.7000000
  -2.2250000   2.4550000   6.0070000  -1.5800000   1.5780000   6.0620000
  -3.4060000   1.8780000   5.2590000  -4.1050000   2.6580000   4.5280000
  -2.5660000   2.9060000   7.4740000  -1.7210000   3.4390000   7.9110000
  -2.7140000   1.9860000   8.0390000  -3.8680000   3.6340000   7.6320000
  -4.7140000   3.1470000   7.1470000  -3.8380000   4.6110000   7.1500000
  -4.1360000   3.8460000   9.1050000  -4.5560000   2.9050000   9.7600000
  -4.1890000   4.9970000   9.5410000  -3.7220000   0.5860000   5.4740000
  -3.1450000   0.0930000   6.1400000  -4.8350000  -0.1770000   4.8740000
  -4.9580000  -1.0760000   5.4780000  -5.7680000   0.3860000   4.8880000
  -4.7030000  -0.5400000   3.4210000  -3.6290000  -0.6760000   2.9060000
  -5.8490000  -0.6620000   2.7400000  -6.7550000  -0.6390000   3.1850000
  -5.9310000  -0.5190000   1.2710000  -6.9790000  -0.6080000   0.9860000
  -5.8330000   0.5270000   0.9800000  -5.2000000  -1.4820000   0.4030000
  -5.2580000  -2.6930000   0.5640000  -4.6220000  -0.8280000  -0.6310000
  -4.5700000   0.1800000  -0.6070000  -3.8570000  -1.4290000  -1.7770000
  -3.6070000  -2.4750000  -1.6040000  -2.5910000  -0.6440000  -2.1550000
  -2.7080000   0.5760000  -2.3300000  -4.7610000  -1.4100000  -3.0330000
  -5.0010000  -0.3690000  -3.2500000  -6.1250000  -2.0870000  -2.6960000
  -6.6490000  -1.4550000  -1.9790000  -5.8450000  -2.9310000  -2.0650000
  -4.0210000  -2.0240000  -4.2330000  -3.2400000  -1.3800000  -4.6380000
  -4.6670000  -2.1450000  -5.1030000  -3.6590000  -3.0390000  -4.0700000
  -7.1310000  -2.6410000  -3.7550000  -7.9440000  -3.0980000  -3.1900000
  -7.6880000  -1.8380000  -4.2390000  -6.6740000  -3.4270000  -4.3560000
  -1.4520000  -1.2870000  -2.5040000  -1.5240000  -2.2930000  -2.5530000
  -0.2050000  -0.7620000  -3.0910000   0.2370000  -1.6140000  -3.6080000
  -0.4330000  -0.0190000  -3.8550000   0.7510000  -0.2090000  -1.9870000
   1.0850000  -0.9630000  -1.0090000   1.3600000   0.9650000  -2.2150000
   1.1430000   1.4790000  -3.0570000   2.1900000   1.6730000  -1.2500000
   1.6150000   1.7480000  -0.3270000   2.4430000   2.6740000  -1.6000000
   3.5020000   0.9420000  -0.8820000   3.8230000  -0.1270000  -1.3470000
   4.2600000   1.6150000  -0.0140000   3.9270000   2.5470000   0.1870000
   5.2660000   0.9500000   0.8850000   4.7670000   0.2100000   1.5110000
   5.6700000   1.6680000   1.5990000   6.5010000   0.2370000   0.3840000
   6.9210000   0.3960000  -0.7750000   7.1450000  -0.4330000   1.3220000
   6.6300000  -0.6100000   2.1720000   8.4150000  -1.1760000   1.0460000
   8.9690000  -0.7570000   0.2070000   8.0140000  -2.6580000   0.7870000
   8.0090000  -3.4500000   1.6910000   9.4680000  -1.1500000   2.1500000
   9.9480000  -0.1820000   2.2920000   8.9290000  -1.4690000   3.0420000
  10.5740000  -2.0260000   1.9550000  10.8500000  -2.2660000   2.8420000
   7.6280000  -2.9010000  -0.5100000   7.8660000  -2.1870000  -1.1830000
   7.2810000  -4.2180000  -1.0630000   7.7810000  -4.9410000  -0.4180000
   7.6890000  -4.3260000  -2.0690000   5.7670000  -4.3430000  -1.2960000
   5.2880000  -5.4450000  -1.6400000   5.0350000  -3.2590000  -1.1560000
   5.4300000  -2.4250000  -0.7450000   3.5520000  -3.2570000  -1.2050000
   3.2750000  -4.1080000  -1.8270000   3.0180000  -2.3700000  -1.5470000
   2.8650000  -3.5990000   0.1040000   2.1540000  -4.5720000   0.1600000
   2.9860000  -2.6370000   1.0130000   3.4660000  -1.8310000   0.6390000
   2.0780000  -2.4620000   2.1440000   1.1760000  -3.0390000   1.9390000
   1.6100000  -1.0420000   2.3560000   2.3510000  -0.1320000   2.0910000
   2.7860000  -3.1150000   3.3640000   2.2130000  -2.7800000   4.2290000
   3.7750000  -2.6580000   3.4030000   2.8500000  -4.6070000   3.4380000
   1.8460000  -5.4150000   3.8370000   0.8740000  -5.0900000   4.1770000
   3.9390000  -5.4270000   2.9840000   2.2790000  -6.7020000   3.7460000
   1.7360000  -7.4990000   4.0440000   3.4880000  -6.8400000   3.1410000
   5.1870000  -5.2030000   2.3120000   5.3670000  -4.2320000   1.8750000
   4.4430000  -7.8670000   3.0060000   4.2220000  -8.8800000   3.3070000
   6.0720000  -6.3150000   2.0370000   6.9550000  -6.1470000   1.4380000
   5.7060000  -7.6030000   2.4070000   6.3790000  -8.3930000   2.1060000
   0.3410000  -0.8510000   2.7230000  -0.2410000  -1.6620000   2.8750000
  -0.2650000   0.4350000   3.0050000  -0.9110000   0.4350000   3.8820000
   0.5240000   1.1490000   3.2420000  -0.9380000   1.0790000   1.8020000
  -0.4380000   1.0270000   0.6830000  -2.0620000   1.7330000   1.9650000
  -2.5120000   1.6940000   2.8680000  -2.8850000   2.1820000   0.8510000
  -3.0130000   1.3050000   0.2160000  -2.1640000   3.2890000  -0.0240000
  -1.3380000   4.0260000   0.4970000  -4.1990000   2.6860000   1.3390000
  -4.5750000   2.0260000   2.1210000  -3.8840000   3.5480000   1.9270000
  -5.1410000   3.1400000   0.2240000  -5.4920000   2.2810000  -0.5790000
  -5.6910000   4.2230000   0.2200000  -2.4790000   3.3630000  -1.2960000
  -2.9870000   2.5710000  -1.6640000  -1.8670000   4.3080000  -2.2540000
  -2.4070000   5.2470000  -2.1320000  -0.8250000   4.3030000  -1.9360000
  -2.2380000   3.8300000  -3.6240000  -3.4050000   3.4550000  -3.8400000
  -1.1900000   3.7950000  -4.4690000  -0.3700000   4.1830000  -4.0240000
  -1.2460000   3.0910000  -5.7290000  -2.1430000   2.4780000  -5.8210000
  -0.0770000   2.0990000  -5.8300000   1.0690000   2.2740000  -5.4220000
  -1.1980000   4.1200000  -6.9320000  -0.2010000   4.5540000  -7.0040000
  -1.4280000   3.4900000  -7.7920000  -2.2390000   5.2360000  -6.8060000
  -3.6000000   4.9060000  -6.9650000  -3.8950000   3.8880000  -7.1720000
  -1.9090000   6.5110000  -6.3560000  -0.9010000   6.7720000  -6.0730000
  -4.6010000   5.9300000  -6.6780000  -5.5960000   5.5230000  -6.5710000
  -2.8740000   7.5000000  -6.1780000  -2.5680000   8.5230000  -6.0110000
  -4.2240000   7.2150000  -6.2650000  -4.9840000   7.9390000  -6.0070000
  -0.3260000   1.0790000  -6.7000000  -1.2230000   1.1100000  -7.1620000
   0.5870000  -0.0080000  -7.1140000   1.5080000   0.2070000  -6.5730000
   0.9420000  -0.0030000  -8.1450000   0.0580000  -1.3640000  -6.7010000
  -1.0480000  -1.5080000  -6.2380000   0.8280000  -2.4750000  -6.7850000
   1.7510000  -2.4070000  -7.1890000   0.5650000  -3.8290000  -6.2350000
   1.2730000  -4.4870000  -6.7390000  -0.4650000  -4.1550000  -6.3790000
   0.9990000  -3.8380000  -4.7200000   2.0490000  -3.3110000  -4.3560000
   0.2060000  -4.5300000  -3.9500000  -0.6090000  -4.8390000  -4.4600000
   0.3170000  -4.7450000  -2.5360000   0.5740000  -5.7840000  -2.3300000
   1.0480000  -4.1190000  -2.0240000  -1.0030000  -4.5500000  -1.7840000
  -1.9850000  -4.0980000  -2.3900000  -1.1330000  -5.0900000  -0.5760000
  -0.4000000  -5.6860000  -0.2200000  -2.3920000  -5.1070000   0.1590000
  -3.0280000  -4.2500000  -0.0620000  -2.2890000  -5.1570000   1.6630000
  -1.6330000  -5.9420000   2.2860000  -3.1780000  -6.3860000  -0.2850000
  -2.6380000  -7.2960000  -0.0230000  -4.0940000  -6.4930000   0.2960000
  -3.5570000  -6.6570000  -1.7250000  -2.7520000  -6.6600000  -2.4600000
  -4.6590000  -5.7150000  -2.1170000  -4.3370000  -4.6740000  -2.0960000
  -4.9510000  -5.9250000  -3.1460000  -5.4570000  -5.7830000  -1.3770000
  -4.0290000  -8.1330000  -1.9640000  -4.7670000  -8.3640000  -1.1960000
  -3.2180000  -8.8380000  -1.7810000  -4.3500000  -8.2240000  -3.0020000
  -3.1030000  -4.3630000   2.3120000  -3.7820000  -3.9000000   1.7260000
  -3.1290000  -4.1190000   3.6930000  -3.9640000  -3.4730000   3.9660000
  -3.3740000  -5.0950000   4.1110000  -1.7720000  -3.6310000   4.3100000
  -0.7760000  -3.2690000   3.6570000  -1.7460000  -3.6620000   5.6460000
  -2.6010000  -3.7940000   6.1680000  -0.6220000  -3.1730000   6.4600000
   0.3240000  -3.6070000   6.1380000  -0.6330000  -3.6070000   7.4600000
  -0.3650000  -1.6340000   6.5620000  -1.3240000  -0.8740000   6.5800000
   0.9290000  -1.3010000   6.7860000   1.6280000  -2.0160000   6.9270000
   1.5230000   0.0480000   6.8060000   0.7230000   0.7100000   6.4740000
   2.7080000   0.2130000   5.8540000   3.4670000  -0.7040000   5.5920000
   1.8040000   0.5610000   8.2710000   2.2810000   1.5290000   8.1180000
   2.5250000  -0.1620000   8.6540000   0.6460000   0.6970000   9.2470000
   0.0380000   1.9690000   9.4960000   0.5020000   2.8890000   9.1710000
   0.0740000  -0.4700000   9.7610000   0.5320000  -1.4060000   9.4780000
  -1.1470000   2.0320000  10.2680000  -1.7370000   2.9330000  10.3430000
  -1.1650000  -0.4640000  10.4550000  -1.6820000  -1.3790000  10.7040000
  -1.7260000   0.8190000  10.7250000  -2.9800000   0.9050000  11.2190000
  -3.4680000   1.6200000  10.8040000   2.8180000   1.4370000   5.2700000
   2.0150000   2.0200000   5.4540000   3.8350000   1.8110000   4.2970000
   4.1680000   0.8810000   3.8370000   3.4100000   2.4290000   3.5070000
   5.0440000   2.4390000   4.9180000   5.0260000   2.6690000   6.1610000
   6.0100000   2.8860000   4.1320000   5.8880000   2.8090000   3.1320000
   7.2850000   3.5000000   4.5330000   7.1120000   4.1180000   5.4150000
   7.6930000   4.4280000   3.4370000   7.9710000   5.5520000   3.7870000
   8.4100000   2.5240000   4.8370000   9.3630000   3.0540000   4.8200000
   8.4230000   1.7000000   4.1240000   8.1420000   2.1240000   6.1260000
   7.7270000   1.2580000   6.0910000   7.7800000   3.9670000   2.2790000
  -2.7420000   1.1970000 -12.3970000  -3.8850000   0.4620000 -11.9740000
  -3.9490000   0.2210000 -10.6280000  -5.0940000   0.5470000  -9.9740000
  -5.1900000   0.3170000  -8.6140000  -4.1630000  -0.2400000  -7.9210000
  -4.2100000  -0.4820000  -6.4580000  -3.2490000  -1.0340000  -5.8950000
  -5.3320000  -0.0610000  -5.5970000  -5.3950000   1.2480000  -5.1320000
  -6.4340000   1.6360000  -4.3120000  -7.4000000   0.7210000  -3.9130000
  -7.3090000  -0.6100000  -4.3550000  -6.2660000  -1.0040000  -5.1720000
  -2.9640000  -0.5980000  -8.6200000  -1.9630000  -1.1480000  -7.9320000
  -2.8880000  -0.3510000  -9.9770000  -2.1882761   1.5530692 -11.5157483
  -2.0913786   0.5475652 -13.0010913  -3.0629365   2.0584369 -13.0010913
  -5.9383143   0.9905383 -10.5220941  -6.1143617   0.5898902  -8.0838243
  -4.6179883   1.9724020  -5.4174724  -6.4982517   2.6797735  -3.9708129
  -8.2266975   1.0345813  -3.2586011  -8.0713999  -1.3416493  -4.0493275
  -6.1738096  -2.0546188  -5.4845716  -1.1257487  -1.4030077  -8.3946893
  -1.9765729  -0.6133102 -10.5342199
