%VERSION  VERSION_STAMP = V0001.000  DATE = 10/05/26  20:16:40
%FLAG TITLE
%FORMAT(20a4)

%FLAG POINTERS
%FORMAT(10I8)
     315      20     139     180     314     237     635     514       0       0
    1646      28     180     237     514      32      44     836       1       0
       0       0       0       0       0       0       0       0      29       0
       0
%FLAG ATOM_NAME
%FORMAT(20a4)
N   H   H2  H3  CA  HA  C   O   CB  HB2 HB3 CG  OD1 OD2 N   H   CA  HA2 HA3 C   
O   N   H   CA  HA2 HA3 C   O   N   H   CA  HA  C   O   CB  HB2 HB3 CG  HG2 HG3 
CD  OE1 OE2 N   H   CA  HA2 HA3 C   O   N   H   CA  HA2 HA3 C   O   N   H   CA  
HA  C   O   CB  HB  CG1 HG12HG13CG2 HG21HG22HG23CD1 HD11HD12HD13N   H   CA  HA2 
HA3 C   O   N   H   CA  HA2 HA3 C   O   N   H   CA  HA2 HA3 C   O   N   H   CA  
HA  C   O   CB  HB2 HB3 OG  HG  N   H   CA  HA2 HA3 C   O   N   H   CA  HA2 HA3 
C   O   N   H   CA  HA  C   O   CB  HB2 HB3 CG  CD1 HD1 CD2 NE1 HE1 CE2 CE3 HE3 
CZ2 HZ2 CZ3 HZ3 CH2 HH2 N   H   CA  HA2 HA3 C   O   N   H   CA  HA  C   O   CB  
HB2 HB3 CG  OD1 OD2 N   H   CA  HA2 HA3 C   O   N   H   CA  HA  C   O   CB  HB2 
HB3 CG  CD1 HD1 CD2 HD2 CE1 HE1 CE2 HE2 CZ  HZ  N   H   CA  HA2 HA3 C   O   N   
H   CA  HA2 HA3 C   O   N   H   CA  HA2 HA3 C   O   N   H   CA  HA  C   O   CB  
HB2 HB3 CG  HG  CD1 HD11HD12HD13CD2 HD21HD22HD23N   H   CA  HA2 HA3 C   O   N   
H   CA  HA2 HA3 C   O   N   H   CA  HA  C   O   CB  HB2 HB3 CG  CD1 HD1 CD2 HD2 
CE1 HE1 CE2 HE2 CZ  OH  HH  N   H   CA  HA2 HA3 C   O   N   H   CA  HA  C   O   
CB  HB2 HB3 OG  HG  OXT C1x O1x C2x C3x C4x C5x C6x O2x C7x C8x C9x C10xC11xC12x
C13xO3x C14xH1x H2x H3x H4x H5x H6x H7x H8x H9x H10xH11xH12x
%FLAG CHARGE
%FORMAT(5E16.8)
  1.42498386E+00  4.00890600E+00  4.00890600E+00  4.00890600E+00  5.32091160E-01
  2.07916443E+00  1.02427548E+01 -1.07311125E+01 -4.28224050E-01 -3.07956870E-01
 -3.07956870E-01  1.49313526E+01 -1.47309073E+01 -1.47309073E+01 -7.57501011E+00
  4.95464337E+00 -4.59201960E-01  1.27191654E+00  1.27191654E+00  1.08841798E+01
 -1.03484442E+01 -7.57501011E+00  4.95464337E+00 -4.59201960E-01  1.27191654E+00
  1.27191654E+00  1.08841798E+01 -1.03484442E+01 -9.40817349E+00  5.35006728E+00
  7.23425310E-01  2.01356415E+00  9.77808618E+00 -1.06035564E+01  1.02044880E+00
 -3.15245790E-01 -3.15245790E-01  2.47823280E-01 -7.74447750E-01 -7.74447750E-01
  1.46762404E+01 -1.49204192E+01 -1.49204192E+01 -7.57501011E+00  4.95464337E+00
 -4.59201960E-01  1.27191654E+00  1.27191654E+00  1.08841798E+01 -1.03484442E+01
 -7.57501011E+00  4.95464337E+00 -4.59201960E-01  1.27191654E+00  1.27191654E+00
  1.08841798E+01 -1.03484442E+01 -7.57501011E+00  4.95464337E+00 -1.08787131E+00
  1.58351787E+00  1.08841798E+01 -1.03484442E+01  2.37436569E+00  3.40757010E-01
 -7.83558900E-01  4.30046280E-01  4.30046280E-01 -5.83842492E+00  1.60720686E+00
  1.60720686E+00  1.60720686E+00 -1.20267180E+00  3.38934780E-01  3.38934780E-01
  3.38934780E-01 -7.57501011E+00  4.95464337E+00 -4.59201960E-01  1.27191654E+00
  1.27191654E+00  1.08841798E+01 -1.03484442E+01 -7.57501011E+00  4.95464337E+00
 -4.59201960E-01  1.27191654E+00  1.27191654E+00  1.08841798E+01 -1.03484442E+01
 -7.57501011E+00  4.95464337E+00 -4.59201960E-01  1.27191654E+00  1.27191654E+00
  1.08841798E+01 -1.03484442E+01 -7.57501011E+00  4.95464337E+00 -4.53735270E-01
  1.53613989E+00  1.08841798E+01 -1.03484442E+01  3.85766091E+00  6.41424960E-01
  6.41424960E-01 -1.19283176E+01  7.79003325E+00 -7.57501011E+00  4.95464337E+00
 -4.59201960E-01  1.27191654E+00  1.27191654E+00  1.08841798E+01 -1.03484442E+01
 -7.57501011E+00  4.95464337E+00 -4.59201960E-01  1.27191654E+00  1.27191654E+00
  1.08841798E+01 -1.03484442E+01 -7.57501011E+00  4.95464337E+00 -5.01113250E-01
  2.04636429E+00  1.08841798E+01 -1.03484442E+01 -9.11115000E-02  6.17735970E-01
  6.17735970E-01 -2.57845545E+00 -2.98481274E+00  3.75743826E+00  2.26503189E+00
 -6.22838214E+00  6.21744876E+00  2.51467740E+00 -4.34966301E+00  3.09779100E+00
 -4.73962023E+00  2.86454556E+00 -3.59343756E+00  2.63676681E+00 -2.06640882E+00
  2.58209991E+00 -7.57501011E+00  4.95464337E+00 -4.59201960E-01  1.27191654E+00
  1.27191654E+00  1.08841798E+01 -1.03484442E+01 -9.40817349E+00  5.35006728E+00
  6.94269630E-01  1.60356240E+00  9.77808618E+00 -1.06035564E+01 -5.52135690E-01
 -2.22312060E-01 -2.22312060E-01  1.45669066E+01 -1.46033512E+01 -1.46033512E+01
 -7.57501011E+00  4.95464337E+00 -4.59201960E-01  1.27191654E+00  1.27191654E+00
  1.08841798E+01 -1.03484442E+01 -7.57501011E+00  4.95464337E+00 -4.37335200E-02
  1.78214094E+00  1.08841798E+01 -1.03484442E+01 -6.25024890E-01  5.37557850E-01
  5.37557850E-01  2.15023140E-01 -2.28872088E+00  2.42356590E+00 -2.28872088E+00
  2.42356590E+00 -3.10507992E+00  2.60578890E+00 -3.10507992E+00  2.60578890E+00
 -1.95343056E+00  2.36343231E+00 -7.57501011E+00  4.95464337E+00 -4.59201960E-01
  1.27191654E+00  1.27191654E+00  1.08841798E+01 -1.03484442E+01 -7.57501011E+00
  4.95464337E+00 -4.59201960E-01  1.27191654E+00  1.27191654E+00  1.08841798E+01
 -1.03484442E+01 -7.57501011E+00  4.95464337E+00 -4.59201960E-01  1.27191654E+00
  1.27191654E+00  1.08841798E+01 -1.03484442E+01 -7.57501011E+00  4.95464337E+00
 -9.43915140E-01  1.68009606E+00  1.08841798E+01 -1.03484442E+01 -2.00809746E+00
  8.32759110E-01  8.32759110E-01  6.43429413E+00 -6.57825030E-01 -7.50940983E+00
  1.82223000E+00  1.82223000E+00  1.82223000E+00 -7.50940983E+00  1.82223000E+00
  1.82223000E+00  1.82223000E+00 -7.57501011E+00  4.95464337E+00 -4.59201960E-01
  1.27191654E+00  1.27191654E+00  1.08841798E+01 -1.03484442E+01 -7.57501011E+00
  4.95464337E+00 -4.59201960E-01  1.27191654E+00  1.27191654E+00  1.08841798E+01
 -1.03484442E+01 -7.57501011E+00  4.95464337E+00 -2.55112200E-02  1.59627348E+00
  1.08841798E+01 -1.03484442E+01 -2.76978960E-01  5.37557850E-01  5.37557850E-01
 -2.00445300E-02 -3.47317038E+00  3.09596877E+00 -3.47317038E+00  3.09596877E+00
 -4.26584043E+00  3.01761288E+00 -4.26584043E+00  3.01761288E+00  5.87851398E+00
 -1.01662212E+01  7.27434216E+00 -7.57501011E+00  4.95464337E+00 -4.59201960E-01
  1.27191654E+00  1.27191654E+00  1.08841798E+01 -1.03484442E+01 -6.96274083E+00
  4.88539863E+00 -4.96011006E+00  2.37618792E+00  1.47837520E+01 -1.48183744E+01
  2.04636429E+00  1.48147299E+00  1.48147299E+00 -1.18700062E+01  8.15265702E+00
 -1.48183744E+01  2.03605864E+00 -5.82868604E+00  3.41002006E+00 -4.68250337E+00
 -3.45595973E-01 -5.38588415E+00  1.10670305E+01 -1.03514609E+01 -2.99876285E+00
 -1.59382352E+00 -2.57782772E+00 -1.93093607E+00 -2.57782772E+00 -1.59382352E+00
  4.19357896E+00 -9.07589990E+00 -3.95361137E+00  8.81985711E-01  8.81985711E-01
  8.81985711E-01  2.60641663E+00  2.64286123E+00  2.67019468E+00  2.50619398E+00
  2.46063823E+00  2.50619398E+00  2.67019468E+00  8.34644113E+00  3.13486333E+00
%FLAG ATOMIC_NUMBER
%FORMAT(10I8)
       7       1       1       1       6       1       6       8       6       1
       1       6       8       8       7       1       6       1       1       6
       8       7       1       6       1       1       6       8       7       1
       6       1       6       8       6       1       1       6       1       1
       6       8       8       7       1       6       1       1       6       8
       7       1       6       1       1       6       8       7       1       6
       1       6       8       6       1       6       1       1       6       1
       1       1       6       1       1       1       7       1       6       1
       1       6       8       7       1       6       1       1       6       8
       7       1       6       1       1       6       8       7       1       6
       1       6       8       6       1       1       8       1       7       1
       6       1       1       6       8       7       1       6       1       1
       6       8       7       1       6       1       6       8       6       1
       1       6       6       1       6       7       1       6       6       1
       6       1       6       1       6       1       7       1       6       1
       1       6       8       7       1       6       1       6       8       6
       1       1       6       8       8       7       1       6       1       1
       6       8       7       1       6       1       6       8       6       1
       1       6       6       1       6       1       6       1       6       1
       6       1       7       1       6       1       1       6       8       7
       1       6       1       1       6       8       7       1       6       1
       1       6       8       7       1       6       1       6       8       6
       1       1       6       1       6       1       1       1       6       1
       1       1       7       1       6       1       1       6       8       7
       1       6       1       1       6       8       7       1       6       1
       6       8       6       1       1       6       6       1       6       1
       6       1       6       1       6       8       1       7       1       6
       1       1       6       8       7       1       6       1       6       8
       6       1       1       8       1       8       6       8       6       6
       6       6       6       8       6       6       6       6       6       6
       6       8       6       1       1       1       1       1       1       1
       1       1       1       1       1
%FLAG MASS
%FORMAT(5E16.8)
  1.40067200E+01  1.00794700E+00  1.00794700E+00  1.00794700E+00  1.20107800E+01
  1.00794700E+00  1.20107800E+01  1.59994300E+01  1.20107800E+01  1.00794700E+00
  1.00794700E+00  1.20107800E+01  1.59994300E+01  1.59994300E+01  1.40067200E+01
  1.00794700E+00  1.20107800E+01  1.00794700E+00  1.00794700E+00  1.20107800E+01
  1.59994300E+01  1.40067200E+01  1.00794700E+00  1.20107800E+01  1.00794700E+00
  1.00794700E+00  1.20107800E+01  1.59994300E+01  1.40067200E+01  1.00794700E+00
  1.20107800E+01  1.00794700E+00  1.20107800E+01  1.59994300E+01  1.20107800E+01
  1.00794700E+00  1.00794700E+00  1.20107800E+01  1.00794700E+00  1.00794700E+00
  1.20107800E+01  1.59994300E+01  1.59994300E+01  1.40067200E+01  1.00794700E+00
  1.20107800E+01  1.00794700E+00  1.00794700E+00  1.20107800E+01  1.59994300E+01
  1.40067200E+01  1.00794700E+00  1.20107800E+01  1.00794700E+00  1.00794700E+00
  1.20107800E+01  1.59994300E+01  1.40067200E+01  1.00794700E+00  1.20107800E+01
  1.00794700E+00  1.20107800E+01  1.59994300E+01  1.20107800E+01  1.00794700E+00
  1.20107800E+01  1.00794700E+00  1.00794700E+00  1.20107800E+01  1.00794700E+00
  1.00794700E+00  1.00794700E+00  1.20107800E+01  1.00794700E+00  1.00794700E+00
  1.00794700E+00  1.40067200E+01  1.00794700E+00  1.20107800E+01  1.00794700E+00
  1.00794700E+00  1.20107800E+01  1.59994300E+01  1.40067200E+01  1.00794700E+00
  1.20107800E+01  1.00794700E+00  1.00794700E+00  1.20107800E+01  1.59994300E+01
  1.40067200E+01  1.00794700E+00  1.20107800E+01  1.00794700E+00  1.00794700E+00
  1.20107800E+01  1.59994300E+01  1.40067200E+01  1.00794700E+00  1.20107800E+01
  1.00794700E+00  1.20107800E+01  1.59994300E+01  1.20107800E+01  1.00794700E+00
  1.00794700E+00  1.59994300E+01  1.00794700E+00  1.40067200E+01  1.00794700E+00
  1.20107800E+01  1.00794700E+00  1.00794700E+00  1.20107800E+01  1.59994300E+01
  1.40067200E+01  1.00794700E+00  1.20107800E+01  1.00794700E+00  1.00794700E+00
  1.20107800E+01  1.59994300E+01  1.40067200E+01  1.00794700E+00  1.20107800E+01
  1.00794700E+00  1.20107800E+01  1.59994300E+01  1.20107800E+01  1.00794700E+00
  1.00794700E+00  1.20107800E+01  1.20107800E+01  1.00794700E+00  1.20107800E+01
  1.40067200E+01  1.00794700E+00  1.20107800E+01  1.20107800E+01  1.00794700E+00
  1.20107800E+01  1.00794700E+00  1.20107800E+01  1.00794700E+00  1.20107800E+01
  1.00794700E+00  1.40067200E+01  1.00794700E+00  1.20107800E+01  1.00794700E+00
  1.00794700E+00  1.20107800E+01  1.59994300E+01  1.40067200E+01  1.00794700E+00
  1.20107800E+01  1.00794700E+00  1.20107800E+01  1.59994300E+01  1.20107800E+01
  1.00794700E+00  1.00794700E+00  1.20107800E+01  1.59994300E+01  1.59994300E+01
  1.40067200E+01  1.00794700E+00  1.20107800E+01  1.00794700E+00  1.00794700E+00
  1.20107800E+01  1.59994300E+01  1.40067200E+01  1.00794700E+00  1.20107800E+01
  1.00794700E+00  1.20107800E+01  1.59994300E+01  1.20107800E+01  1.00794700E+00
  1.00794700E+00  1.20107800E+01  1.20107800E+01  1.00794700E+00  1.20107800E+01
  1.00794700E+00  1.20107800E+01  1.00794700E+00  1.20107800E+01  1.00794700E+00
  1.20107800E+01  1.00794700E+00  1.40067200E+01  1.00794700E+00  1.20107800E+01
  1.00794700E+00  1.00794700E+00  1.20107800E+01  1.59994300E+01  1.40067200E+01
  1.00794700E+00  1.20107800E+01  1.00794700E+00  1.00794700E+00  1.20107800E+01
  1.59994300E+01  1.40067200E+01  1.00794700E+00  1.20107800E+01  1.00794700E+00
  1.00794700E+00  1.20107800E+01  1.59994300E+01  1.40067200E+01  1.00794700E+00
  1.20107800E+01  1.00794700E+00  1.20107800E+01  1.59994300E+01  1.20107800E+01
  1.00794700E+00  1.00794700E+00  1.20107800E+01  1.00794700E+00  1.20107800E+01
  1.00794700E+00  1.00794700E+00  1.00794700E+00  1.20107800E+01  1.00794700E+00
  1.00794700E+00  1.00794700E+00  1.40067200E+01  1.00794700E+00  1.20107800E+01
  1.00794700E+00  1.00794700E+00  1.20107800E+01  1.59994300E+01  1.40067200E+01
  1.00794700E+00  1.20107800E+01  1.00794700E+00  1.00794700E+00  1.20107800E+01
  1.59994300E+01  1.40067200E+01  1.00794700E+00  1.20107800E+01  1.00794700E+00
  1.20107800E+01  1.59994300E+01  1.20107800E+01  1.00794700E+00  1.00794700E+00
  1.20107800E+01  1.20107800E+01  1.00794700E+00  1.20107800E+01  1.00794700E+00
  1.20107800E+01  1.00794700E+00  1.20107800E+01  1.00794700E+00  1.20107800E+01
  1.59994300E+01  1.00794700E+00  1.40067200E+01  1.00794700E+00  1.20107800E+01
  1.00794700E+00  1.00794700E+00  1.20107800E+01  1.59994300E+01  1.40067200E+01
  1.00794700E+00  1.20107800E+01  1.00794700E+00  1.20107800E+01  1.59994300E+01
  1.20107800E+01  1.00794700E+00  1.00794700E+00  1.59994300E+01  1.00794700E+00
  1.59994300E+01  1.20107800E+01  1.59994300E+01  1.20107800E+01  1.20107800E+01
  1.20107800E+01  1.20107800E+01  1.20107800E+01  1.59994300E+01  1.20107800E+01
  1.20107800E+01  1.20107800E+01  1.20107800E+01  1.20107800E+01  1.20107800E+01
  1.20107800E+01  1.59994300E+01  1.20107800E+01  1.00794700E+00  1.00794700E+00
  1.00794700E+00  1.00794700E+00  1.00794700E+00  1.00794700E+00  1.00794700E+00
  1.00794700E+00  1.00794700E+00  1.00794700E+00  1.00794700E+00  1.00794700E+00
%FLAG ATOM_TYPE_INDEX
%FORMAT(10I8)
       1       2       2       2       3       4       5       6       3       7
       7       5       6       6       1       2       3       8       8       5
       6       1       2       3       8       8       5       6       1       2
       3       8       5       6       3       7       7       3       7       7
       5       6       6       1       2       3       8       8       5       6
       1       2       3       8       8       5       6       1       2       3
       8       5       6       3       7       3       7       7       3       7
       7       7       3       7       7       7       1       2       3       8
       8       5       6       1       2       3       8       8       5       6
       1       2       3       8       8       5       6       1       2       3
       8       5       6       3       8       8       9      10       1       2
       3       8       8       5       6       1       2       3       8       8
       5       6       1       2       3       8       5       6       3       7
       7       5       5      11       5       1       2       5       5      12
       5      12       5      12       5      12       1       2       3       8
       8       5       6       1       2       3       8       5       6       3
       7       7       5       6       6       1       2       3       8       8
       5       6       1       2       3       8       5       6       3       7
       7       5       5      12       5      12       5      12       5      12
       5      12       1       2       3       8       8       5       6       1
       2       3       8       8       5       6       1       2       3       8
       8       5       6       1       2       3       8       5       6       3
       7       7       3       7       3       7       7       7       3       7
       7       7       1       2       3       8       8       5       6       1
       2       3       8       8       5       6       1       2       3       8
       5       6       3       7       7       5       5      12       5      12
       5      12       5      12       5       9      10       1       2       3
       8       8       5       6       1       2       3       8       5       6
       3       8       8       9      10       6      13      14      15      15
      15      15      15      16      15      15      15      15      15      15
      15      17      15      18      18      18      19      19      19      19
      19      19      19      20      19
%FLAG NUMBER_EXCLUDED_ATOMS
%FORMAT(10I8)
      12       6       5       4      12       7      11       4       6       4
       3       2       1       1       7       4       7       4       3       7
       3       7       4       7       4       3       7       3      10       4
      13       7      11       4       9       5       4       5       4       3
       2       1       1       7       4       7       4       3       7       3
       7       4       7       4       3       7       3      10       4      16
       7      11       4      13       8      10       6       5       4       2
       1       1       3       2       1       1       7       4       7       4
       3       7       3       7       4       7       4       3       7       3
       7       4       7       4       3       7       3      10       4      11
       7      11       4       5       3       2       1       1       7       4
       7       4       3       7       3       7       4       7       4       3
       7       3      10       4      12       7      11       4      10       4
       3      10       7       4      10       6       2       7       6       3
       5       3       3       2       1       1       7       4       7       4
       3       7       3      10       4      12       7      11       4       6
       4       3       2       1       1       7       4       7       4       3
       7       3      10       4      12       7      11       4      10       4
       3       9       8       4       6       3       5       3       3       2
       1       1       7       4       7       4       3       7       3       7
       4       7       4       3       7       3       7       4       7       4
       3       7       3      10       4      13       7      11       4      13
       5       4       9       8       7       3       2       1       3       2
       1       1       7       4       7       4       3       7       3       7
       4       7       4       3       7       3      10       4      12       7
      11       4      10       4       3       9       8       4       6       3
       6       3       4       2       2       1       1       7       4       7
       4       3       7       3      10       4       9       7       6       2
       5       3       2       1       1       1       7      10      12       8
       9      12      12       4      10       8       7       7       5       4
       5       3       3       2       1       1       1       1       1       1
       1       1       1       1       1
%FLAG NONBONDED_PARM_INDEX
%FORMAT(10I8)
       1       2       4       7      11      16      22      29      37      46
      56      67      79      92     106     121     137     154     172     191
       2       3       5       8      12      17      23      30      38      47
      57      68      80      93     107     122     138     155     173     192
       4       5       6       9      13      18      24      31      39      48
      58      69      81      94     108     123     139     156     174     193
       7       8       9      10      14      19      25      32      40      49
      59      70      82      95     109     124     140     157     175     194
      11      12      13      14      15      20      26      33      41      50
      60      71      83      96     110     125     141     158     176     195
      16      17      18      19      20      21      27      34      42      51
      61      72      84      97     111     126     142     159     177     196
      22      23      24      25      26      27      28      35      43      52
      62      73      85      98     112     127     143     160     178     197
      29      30      31      32      33      34      35      36      44      53
      63      74      86      99     113     128     144     161     179     198
      37      38      39      40      41      42      43      44      45      54
      64      75      87     100     114     129     145     162     180     199
      46      47      48      49      50      51      52      53      54      55
      65      76      88     101     115     130     146     163     181     200
      56      57      58      59      60      61      62      63      64      65
      66      77      89     102     116     131     147     164     182     201
      67      68      69      70      71      72      73      74      75      76
      77      78      90     103     117     132     148     165     183     202
      79      80      81      82      83      84      85      86      87      88
      89      90      91     104     118     133     149     166     184     203
      92      93      94      95      96      97      98      99     100     101
     102     103     104     105     119     134     150     167     185     204
     106     107     108     109     110     111     112     113     114     115
     116     117     118     119     120     135     151     168     186     205
     121     122     123     124     125     126     127     128     129     130
     131     132     133     134     135     136     152     169     187     206
     137     138     139     140     141     142     143     144     145     146
     147     148     149     150     151     152     153     170     188     207
     154     155     156     157     158     159     160     161     162     163
     164     165     166     167     168     169     170     171     189     208
     172     173     174     175     176     177     178     179     180     181
     182     183     184     185     186     187     188     189     190     209
     191     192     193     194     195     196     197     198     199     200
     201     202     203     204     205     206     207     208     209     210
%FLAG RESIDUE_LABEL
%FORMAT(20a4)
ASP GLY GLY GLU GLY GLY ILE GLY GLY GLY SER GLY GLY TRP GLY ASP GLY PHE GLY GLY 
GLY LEU GLY GLY TYR GLY SER LIG 
%FLAG RESIDUE_POINTER
%FORMAT(10I8)
       1      15      22      29      44      51      58      77      84      91
      98     109     116     123     147     154     166     173     193     200
     207     214     233     240     247     268     275     287
%FLAG BOND_FORCE_CONSTANT
%FORMAT(5E16.8)
  3.17000000E+02  5.70000000E+02  3.10000000E+02  3.40000000E+02  3.67000000E+02
  6.56000000E+02  4.34000000E+02  4.90000000E+02  3.37000000E+02  3.20000000E+02
  5.53000000E+02  3.17000000E+02  5.46000000E+02  3.67000000E+02  4.27000000E+02
  4.47000000E+02  4.69000000E+02  3.88000000E+02  4.69000000E+02  4.28000000E+02
  3.17000000E+02  4.69000000E+02  4.50000000E+02  2.84800000E+02  3.57500000E+02
  3.78600000E+02  2.72700000E+02  6.52600000E+02  3.65600000E+02  3.75900000E+02
  3.95700000E+02  5.63500000E+02
%FLAG BOND_EQUIL_VALUE
%FORMAT(5E16.8)
  1.52200000E+00  1.22900000E+00  1.52600000E+00  1.09000000E+00  1.47100000E+00
  1.25000000E+00  1.01000000E+00  1.33500000E+00  1.44900000E+00  1.41000000E+00
  9.60000000E-01  1.49500000E+00  1.35200000E+00  1.08000000E+00  1.38100000E+00
  1.41900000E+00  1.40400000E+00  1.45900000E+00  1.40000000E+00  1.38000000E+00
  1.51000000E+00  1.40900000E+00  1.36400000E+00  1.43200000E+00  1.37000000E+00
  1.39800000E+00  1.49100000E+00  1.21800000E+00  1.36400000E+00  1.09700000E+00
  1.08600000E+00  9.73000000E-01
%FLAG ANGLE_FORCE_CONSTANT
%FORMAT(5E16.8)
  5.00000000E+01  8.00000000E+01  3.50000000E+01  8.00000000E+01  7.00000000E+01
  6.30000000E+01  5.00000000E+01  5.00000000E+01  8.00000000E+01  7.00000000E+01
  8.00000000E+01  6.30000000E+01  5.00000000E+01  8.00000000E+01  4.00000000E+01
  5.50000000E+01  6.30000000E+01  7.00000000E+01  7.00000000E+01  7.00000000E+01
  6.30000000E+01  6.30000000E+01  6.30000000E+01  7.00000000E+01  7.00000000E+01
  6.30000000E+01  6.30000000E+01  7.00000000E+01  5.00000000E+01  6.30000000E+01
  6.30000000E+01  7.00000000E+01  5.00000000E+01  6.61000000E+01  6.24000000E+01
  8.73000000E+01  6.88000000E+01  4.87000000E+01  6.64000000E+01  8.62000000E+01
  6.50000000E+01  8.72000000E+01  5.07000000E+01  3.88000000E+01
%FLAG ANGLE_EQUIL_VALUE
%FORMAT(5E16.8)
  1.91113553E+00  1.94080613E+00  1.91113553E+00  2.10137642E+00  2.03505391E+00
  1.93906080E+00  2.09439510E+00  2.12755636E+00  2.14500965E+00  2.04203522E+00
  2.19911486E+00  1.92160751E+00  2.06018665E+00  1.91462619E+00  1.91113553E+00
  1.89368224E+00  2.01760062E+00  2.18166156E+00  2.24449342E+00  1.89717290E+00
  1.89891823E+00  2.35444916E+00  1.85703032E+00  1.94778745E+00  1.82212374E+00
  2.14151899E+00  2.09439510E+00  2.31779725E+00  2.14850031E+00  2.02807259E+00
  1.98967535E+00  2.09439510E+00  1.97222205E+00  2.05879039E+00  1.91602245E+00
  2.08043247E+00  2.09474417E+00  2.09230071E+00  2.10015469E+00  2.13977366E+00
  2.06140838E+00  2.09264977E+00  1.89507850E+00  1.89298411E+00
%FLAG DIHEDRAL_FORCE_CONSTANT
%FORMAT(5E16.8)
  5.80000000E-02  6.47000000E-01  2.15400000E+00  7.69000000E-01  4.59000000E-01
  4.24000000E-01  2.70000000E-01  2.00000000E+00  2.00000000E-01  2.00000000E-01
  1.58000000E+00  4.50000000E-01  8.00000000E-02  1.80000000E+00  1.44000000E-01
  1.84000000E-01  1.00000000E-01  6.08000000E-01  2.22000000E-01  1.36700000E+00
  3.93000000E-01  4.21000000E-01  3.90000000E-01  1.13000000E-01  1.44000000E-01
  3.10000000E-01  1.48000000E-01  2.16000000E-01  3.37000000E-01  1.07000000E-01
  5.30000000E-02  4.47000000E-01  7.35000000E-01  1.62000000E-01  2.89000000E-01
  4.06000000E-01  7.70000000E-02  2.02000000E-01  4.01000000E-01  2.46000000E-01
  6.66000000E-01  2.67000000E-01  4.44000000E-01  2.11000000E-01  2.18000000E-01
  6.61000000E-01  2.34000000E-01  3.13000000E-01  7.90000000E-02  8.19000000E-01
  4.08000000E-01  3.65000000E-01  3.53000000E-01  1.70000000E-02  6.52500000E+00
  1.67500000E+00  1.50000000E+00  3.00000000E+00  1.52500000E+00  3.62500000E+00
  1.92000000E-01  2.90000000E-01  1.20000000E-02  6.90000000E-02  4.69000000E-01
  5.50000000E-02  2.59000000E-01  9.80000000E-02  1.42000000E-01  2.70000000E-02
  3.79000000E-01  6.20000000E-01  7.06000000E-01  8.83000000E-01  1.00000000E+00
  1.05000000E+01  1.10000000E+00  1.55555556E-01  1.55555556E-01  8.90000000E-02
  1.55555556E-01  1.55555556E-01  1.55555556E-01  1.55555556E-01  1.55555556E-01
  1.55555556E-01  1.55555556E-01  1.55555556E-01  1.55555556E-01  2.50000000E+00
  2.50000000E+00  3.10000000E-02  3.10000000E-02  1.55555556E-01  1.55555556E-01
  1.55555556E-01  1.55555556E-01  1.55555556E-01  1.54000000E-01  4.20000000E-01
  2.50000000E+00  2.50000000E+00  4.00000000E-01  5.50000000E-01  2.50000000E+00
  2.50000000E+00  8.00000000E-01  8.00000000E-01  4.20000000E-01  2.50000000E+00
  2.50000000E+00  5.50000000E-01  2.50000000E+00  2.50000000E+00  8.00000000E-01
  8.00000000E-01  4.20000000E-01  8.00000000E-01  2.50000000E+00  2.50000000E+00
  5.50000000E-01  1.55555556E-01  1.55555556E-01  7.80000000E-02  2.50000000E+00
  2.50000000E+00  1.60000000E-01  1.60000000E-01  5.60000000E-02  8.00000000E-01
  1.55555556E-01  1.55555556E-01  1.55555556E-01  1.55555556E-01  1.55555556E-01
  1.45000000E-01  4.20000000E-01  2.50000000E+00  2.50000000E+00  4.00000000E-01
  6.40000000E-02  6.40000000E-02  1.50000000E-01  1.50000000E-01  1.55555556E-01
  1.50000000E-01  1.50000000E-01  1.55555556E-01  5.50000000E-01  2.50000000E+00
  2.50000000E+00  8.00000000E-01  8.00000000E-01  4.20000000E-01  2.50000000E+00
  2.50000000E+00  5.50000000E-01  2.50000000E+00  2.50000000E+00  8.00000000E-01
  8.00000000E-01  4.20000000E-01  8.00000000E-01  2.50000000E+00  2.50000000E+00
  5.50000000E-01  1.55555556E-01  9.70000000E-02  1.00000000E-03  2.50000000E+00
  2.50000000E+00  1.60000000E-01  1.60000000E-01  2.30000000E-01  1.60000000E-01
  1.60000000E-01  1.60000000E-01  8.00000000E-01  1.55555556E-01  1.55555556E-01
  1.55555556E-01  1.55555556E-01  1.15000000E-01  1.12000000E-01  4.20000000E-01
  2.50000000E+00  2.50000000E+00  4.00000000E-01  1.60000000E-01  1.60000000E-01
  1.60000000E-01  1.50000000E-01  1.50000000E-01  1.60000000E-01  1.50000000E-01
  1.50000000E-01  1.50000000E-01  1.60000000E-01  1.60000000E-01  1.60000000E-01
  1.60000000E-01  1.50000000E-01  1.50000000E-01  1.50000000E-01  1.60000000E-01
  1.50000000E-01  1.50000000E-01  1.50000000E-01  2.24000000E-01  5.50000000E-01
  2.50000000E+00  2.50000000E+00  8.00000000E-01  8.00000000E-01  4.20000000E-01
  2.50000000E+00  2.50000000E+00  5.50000000E-01  2.50000000E+00  2.50000000E+00
  8.00000000E-01  8.00000000E-01  4.20000000E-01  2.50000000E+00  2.50000000E+00
  5.50000000E-01  2.50000000E+00  2.50000000E+00  8.00000000E-01  8.00000000E-01
  4.20000000E-01  8.00000000E-01  2.50000000E+00  2.50000000E+00  5.50000000E-01
  1.55555556E-01  1.55555556E-01  1.60000000E-01  2.50000000E+00  2.50000000E+00
  7.00000000E-03  8.00000000E-01  1.55555556E-01  1.55555556E-01  2.50000000E-01
  1.55555556E-01  1.55555556E-01  1.29000000E-01  4.20000000E-01  2.50000000E+00
  2.50000000E+00  4.00000000E-01  1.66666667E-01  1.66666667E-01  5.50000000E-01
  2.50000000E+00  2.50000000E+00  8.00000000E-01  8.00000000E-01  4.20000000E-01
  2.50000000E+00  2.50000000E+00  5.50000000E-01  2.50000000E+00  2.50000000E+00
  8.00000000E-01  8.00000000E-01  4.20000000E-01  8.00000000E-01  2.50000000E+00
  2.50000000E+00  5.50000000E-01  1.55555556E-01  1.55555556E-01  3.10000000E-02
  2.50000000E+00  2.50000000E+00  9.50000000E-02  8.00000000E-01  1.55555556E-01
  1.55555556E-01  1.55555556E-01  1.55555556E-01  1.55555556E-01  7.40000000E-02
  4.20000000E-01  2.50000000E+00  2.50000000E+00  4.00000000E-01  6.52500000E+00
  6.52500000E+00  1.67500000E+00  1.67500000E+00  1.50000000E+00  3.00000000E+00
  3.50000000E+00  3.50000000E+00  1.67500000E+00  1.52500000E+00  6.52500000E+00
  1.50000000E+00  1.50000000E+00  1.52500000E+00  3.62500000E+00  3.62500000E+00
  3.62500000E+00  3.00000000E+00  3.62500000E+00  3.62500000E+00  1.52500000E+00
  3.50000000E+00  3.50000000E+00  3.62500000E+00  3.00000000E+00  3.62500000E+00
  3.62500000E+00  3.62500000E+00  3.62500000E+00  3.62500000E+00  3.62500000E+00
  3.62500000E+00  5.50000000E-01  2.50000000E+00  2.50000000E+00  8.00000000E-01
  8.00000000E-01  4.20000000E-01  8.00000000E-01  2.50000000E+00  2.50000000E+00
  5.50000000E-01  1.55555556E-01  1.55555556E-01  8.90000000E-02  2.50000000E+00
  2.50000000E+00  3.10000000E-02  3.10000000E-02  8.00000000E-01  1.55555556E-01
  1.55555556E-01  1.55555556E-01  1.55555556E-01  1.55555556E-01  1.54000000E-01
  4.20000000E-01  2.50000000E+00  2.50000000E+00  4.00000000E-01  5.50000000E-01
  2.50000000E+00  2.50000000E+00  8.00000000E-01  8.00000000E-01  4.20000000E-01
  8.00000000E-01  2.50000000E+00  2.50000000E+00  5.50000000E-01  1.55555556E-01
  1.55555556E-01  7.00000000E-03  2.50000000E+00  2.50000000E+00  4.80000000E-02
  4.80000000E-02  8.00000000E-01  1.55555556E-01  1.55555556E-01  1.55555556E-01
  1.55555556E-01  1.55555556E-01  1.20000000E-02  4.20000000E-01  2.50000000E+00
  2.50000000E+00  4.00000000E-01  3.62500000E+00  3.62500000E+00  3.62500000E+00
  3.62500000E+00  3.62500000E+00  3.62500000E+00  3.62500000E+00  3.62500000E+00
  3.62500000E+00  3.62500000E+00  3.62500000E+00  3.62500000E+00  3.62500000E+00
  3.62500000E+00  3.62500000E+00  3.62500000E+00  3.62500000E+00  3.62500000E+00
  3.62500000E+00  3.62500000E+00  3.62500000E+00  5.50000000E-01  2.50000000E+00
  2.50000000E+00  8.00000000E-01  8.00000000E-01  4.20000000E-01  2.50000000E+00
  2.50000000E+00  5.50000000E-01  2.50000000E+00  2.50000000E+00  8.00000000E-01
  8.00000000E-01  4.20000000E-01  2.50000000E+00  2.50000000E+00  5.50000000E-01
  2.50000000E+00  2.50000000E+00  8.00000000E-01  8.00000000E-01  4.20000000E-01
  8.00000000E-01  2.50000000E+00  2.50000000E+00  5.50000000E-01  1.55555556E-01
  1.55555556E-01  7.30000000E-02  2.50000000E+00  2.50000000E+00  1.60000000E-01
  1.79000000E-01  1.79000000E-01  8.00000000E-01  1.55555556E-01  1.55555556E-01
  1.55555556E-01  1.55555556E-01  1.55555556E-01  1.90000000E-01  4.20000000E-01
  2.50000000E+00  2.50000000E+00  4.00000000E-01  1.60000000E-01  1.60000000E-01
  1.60000000E-01  1.60000000E-01  1.60000000E-01  1.60000000E-01  1.50000000E-01
  1.60000000E-01  1.60000000E-01  1.50000000E-01  1.60000000E-01  1.60000000E-01
  1.50000000E-01  1.50000000E-01  1.50000000E-01  1.50000000E-01  1.50000000E-01
  1.50000000E-01  1.60000000E-01  1.60000000E-01  1.60000000E-01  1.60000000E-01
  1.60000000E-01  1.60000000E-01  5.50000000E-01  2.50000000E+00  2.50000000E+00
  8.00000000E-01  8.00000000E-01  4.20000000E-01  2.50000000E+00  2.50000000E+00
  5.50000000E-01  2.50000000E+00  2.50000000E+00  8.00000000E-01  8.00000000E-01
  4.20000000E-01  8.00000000E-01  2.50000000E+00  2.50000000E+00  5.50000000E-01
  1.55555556E-01  1.55555556E-01  7.00000000E-03  2.50000000E+00  2.50000000E+00
  4.80000000E-02  4.80000000E-02  8.00000000E-01  1.55555556E-01  1.55555556E-01
  1.55555556E-01  1.55555556E-01  1.55555556E-01  1.20000000E-02  4.20000000E-01
  2.50000000E+00  2.50000000E+00  4.00000000E-01  3.62500000E+00  3.62500000E+00
  3.62500000E+00  3.62500000E+00  3.62500000E+00  3.62500000E+00  3.62500000E+00
  3.62500000E+00  3.62500000E+00  3.62500000E+00  3.62500000E+00  3.62500000E+00
  3.62500000E+00  3.62500000E+00  3.62500000E+00  3.62500000E+00  3.62500000E+00
  3.62500000E+00  6.50000000E-02  3.62500000E+00  3.62500000E+00  6.50000000E-02
  3.62500000E+00  5.50000000E-01  2.50000000E+00  2.50000000E+00  8.00000000E-01
  8.00000000E-01  4.20000000E-01  8.00000000E-01  2.50000000E+00  2.50000000E+00
  1.55555556E-01  1.55555556E-01  1.60000000E-01  7.00000000E-03  1.55555556E-01
  1.55555556E-01  2.50000000E-01  1.55555556E-01  1.55555556E-01  1.29000000E-01
  1.66666667E-01  1.66666667E-01  1.61000000E+00  1.61000000E+00  3.62500000E+00
  3.62500000E+00  3.62500000E+00  3.62500000E+00  3.83333333E-01  3.83333333E-01
  3.83333333E-01  3.62500000E+00  3.62500000E+00  3.62500000E+00  3.62500000E+00
  3.62500000E+00  3.62500000E+00  3.62500000E+00  5.22000000E-01  1.00000000E+00
  3.62500000E+00  3.62500000E+00  1.00000000E+00  1.00000000E+00  8.35000000E-01
  3.62500000E+00  3.62500000E+00  3.62500000E+00  3.62500000E+00  3.62500000E+00
  3.62500000E+00  3.62500000E+00  3.62500000E+00  5.22000000E-01  5.22000000E-01
  5.22000000E-01  1.00000000E+00  3.62500000E+00  3.62500000E+00  3.62500000E+00
  3.62500000E+00  3.62500000E+00  3.62500000E+00  3.62500000E+00  3.62500000E+00
  3.62500000E+00  3.62500000E+00  3.62500000E+00  3.62500000E+00  3.62500000E+00
  3.62500000E+00  3.62500000E+00  3.62500000E+00  8.35000000E-01  3.62500000E+00
  3.62500000E+00  3.62500000E+00  3.62500000E+00  3.62500000E+00  0.00000000E+00
  0.00000000E+00  0.00000000E+00  0.00000000E+00  0.00000000E+00  0.00000000E+00
  0.00000000E+00  0.00000000E+00  0.00000000E+00  0.00000000E+00  0.00000000E+00
  0.00000000E+00  0.00000000E+00  0.00000000E+00  0.00000000E+00  0.00000000E+00
  0.00000000E+00  0.00000000E+00  0.00000000E+00  0.00000000E+00  0.00000000E+00
  0.00000000E+00  0.00000000E+00  0.00000000E+00  0.00000000E+00  0.00000000E+00
  0.00000000E+00  0.00000000E+00  0.00000000E+00  0.00000000E+00  0.00000000E+00
  0.00000000E+00  0.00000000E+00  0.00000000E+00  0.00000000E+00  0.00000000E+00
  0.00000000E+00  0.00000000E+00  0.00000000E+00  0.00000000E+00  0.00000000E+00
  0.00000000E+00  0.00000000E+00  0.00000000E+00  0.00000000E+00  0.00000000E+00
  0.00000000E+00  0.00000000E+00  0.00000000E+00  0.00000000E+00  0.00000000E+00
  0.00000000E+00  0.00000000E+00  0.00000000E+00  0.00000000E+00  0.00000000E+00
  0.00000000E+00  0.00000000E+00  0.00000000E+00  0.00000000E+00  0.00000000E+00
  0.00000000E+00  0.00000000E+00  0.00000000E+00  0.00000000E+00  0.00000000E+00
  0.00000000E+00  0.00000000E+00  0.00000000E+00  0.00000000E+00  0.00000000E+00
  0.00000000E+00  0.00000000E+00  0.00000000E+00  0.00000000E+00  0.00000000E+00
  0.00000000E+00  0.00000000E+00  0.00000000E+00  0.00000000E+00  0.00000000E+00
  0.00000000E+00  0.00000000E+00  0.00000000E+00  0.00000000E+00  0.00000000E+00
  0.00000000E+00  0.00000000E+00  0.00000000E+00  0.00000000E+00  0.00000000E+00
  0.00000000E+00  0.00000000E+00  0.00000000E+00  0.00000000E+00  0.00000000E+00
  0.00000000E+00  0.00000000E+00  0.00000000E+00  0.00000000E+00  0.00000000E+00
  0.00000000E+00  0.00000000E+00  0.00000000E+00  0.00000000E+00  0.00000000E+00
  0.00000000E+00  0.00000000E+00  0.00000000E+00  0.00000000E+00  0.00000000E+00
  0.00000000E+00  0.00000000E+00  0.00000000E+00  0.00000000E+00  0.00000000E+00
  0.00000000E+00  0.00000000E+00  0.00000000E+00  0.00000000E+00  0.00000000E+00
  0.00000000E+00  0.00000000E+00  0.00000000E+00  0.00000000E+00  0.00000000E+00
  0.00000000E+00  0.00000000E+00  0.00000000E+00  0.00000000E+00  0.00000000E+00
  0.00000000E+00  0.00000000E+00  0.00000000E+00  0.00000000E+00  0.00000000E+00
  0.00000000E+00  0.00000000E+00  0.00000000E+00  0.00000000E+00  0.00000000E+00
  0.00000000E+00  0.00000000E+00  0.00000000E+00  0.00000000E+00  0.00000000E+00
  0.00000000E+00  0.00000000E+00  0.00000000E+00  0.00000000E+00  0.00000000E+00
  0.00000000E+00  0.00000000E+00  0.00000000E+00  0.00000000E+00  0.00000000E+00
  0.00000000E+00  0.00000000E+00  0.00000000E+00  0.00000000E+00  0.00000000E+00
  0.00000000E+00  0.00000000E+00  0.00000000E+00  0.00000000E+00  0.00000000E+00
  0.00000000E+00  0.00000000E+00  0.00000000E+00  0.00000000E+00  0.00000000E+00
  0.00000000E+00  0.00000000E+00  0.00000000E+00  0.00000000E+00  0.00000000E+00
  0.00000000E+00  0.00000000E+00  0.00000000E+00  0.00000000E+00  0.00000000E+00
  0.00000000E+00  0.00000000E+00  0.00000000E+00  0.00000000E+00  0.00000000E+00
  0.00000000E+00  0.00000000E+00  0.00000000E+00  0.00000000E+00  0.00000000E+00
  0.00000000E+00  0.00000000E+00  0.00000000E+00  0.00000000E+00  0.00000000E+00
  0.00000000E+00  0.00000000E+00  0.00000000E+00  0.00000000E+00  0.00000000E+00
  0.00000000E+00  0.00000000E+00  0.00000000E+00  0.00000000E+00  0.00000000E+00
  0.00000000E+00  0.00000000E+00  0.00000000E+00  0.00000000E+00  0.00000000E+00
  0.00000000E+00  0.00000000E+00  0.00000000E+00  0.00000000E+00  0.00000000E+00
  0.00000000E+00  0.00000000E+00  0.00000000E+00  0.00000000E+00  0.00000000E+00
  0.00000000E+00  0.00000000E+00  0.00000000E+00  0.00000000E+00  0.00000000E+00
  0.00000000E+00  0.00000000E+00  0.00000000E+00  0.00000000E+00  0.00000000E+00
  0.00000000E+00
%FLAG DIHEDRAL_PERIODICITY
%FORMAT(5E16.8)
  3.00000000E+00  2.00000000E+00  1.00000000E+00  2.00000000E+00  2.00000000E+00
  1.00000000E+00  2.00000000E+00  1.00000000E+00  2.00000000E+00  1.00000000E+00
  2.00000000E+00  1.00000000E+00  3.00000000E+00  2.00000000E+00  3.00000000E+00
  2.00000000E+00  1.00000000E+00  3.00000000E+00  2.00000000E+00  1.00000000E+00
  2.00000000E+00  1.00000000E+00  2.00000000E+00  3.00000000E+00  2.00000000E+00
  1.00000000E+00  3.00000000E+00  2.00000000E+00  1.00000000E+00  3.00000000E+00
  2.00000000E+00  1.00000000E+00  2.00000000E+00  1.00000000E+00  2.00000000E+00
  1.00000000E+00  2.00000000E+00  1.00000000E+00  3.00000000E+00  2.00000000E+00
  1.00000000E+00  3.00000000E+00  2.00000000E+00  1.00000000E+00  2.00000000E+00
  1.00000000E+00  3.00000000E+00  2.00000000E+00  1.00000000E+00  3.00000000E+00
  2.00000000E+00  1.00000000E+00  2.00000000E+00  1.00000000E+00  2.00000000E+00
  2.00000000E+00  2.00000000E+00  2.00000000E+00  2.00000000E+00  2.00000000E+00
  3.00000000E+00  2.00000000E+00  1.00000000E+00  2.00000000E+00  2.00000000E+00
  1.00000000E+00  2.00000000E+00  1.00000000E+00  3.00000000E+00  2.00000000E+00
  1.00000000E+00  2.00000000E+00  1.00000000E+00  2.00000000E+00  2.00000000E+00
  2.00000000E+00  2.00000000E+00  3.00000000E+00  3.00000000E+00  4.00000000E+00
  3.00000000E+00  3.00000000E+00  3.00000000E+00  3.00000000E+00  3.00000000E+00
  3.00000000E+00  3.00000000E+00  3.00000000E+00  3.00000000E+00  2.00000000E+00
  2.00000000E+00  4.00000000E+00  4.00000000E+00  3.00000000E+00  3.00000000E+00
  3.00000000E+00  3.00000000E+00  3.00000000E+00  4.00000000E+00  3.00000000E+00
  2.00000000E+00  2.00000000E+00  3.00000000E+00  3.00000000E+00  2.00000000E+00
  2.00000000E+00  1.00000000E+00  1.00000000E+00  3.00000000E+00  2.00000000E+00
  2.00000000E+00  3.00000000E+00  2.00000000E+00  2.00000000E+00  1.00000000E+00
  1.00000000E+00  3.00000000E+00  3.00000000E+00  2.00000000E+00  2.00000000E+00
  3.00000000E+00  3.00000000E+00  3.00000000E+00  4.00000000E+00  2.00000000E+00
  2.00000000E+00  3.00000000E+00  3.00000000E+00  4.00000000E+00  1.00000000E+00
  3.00000000E+00  3.00000000E+00  3.00000000E+00  3.00000000E+00  3.00000000E+00
  4.00000000E+00  3.00000000E+00  2.00000000E+00  2.00000000E+00  3.00000000E+00
  4.00000000E+00  4.00000000E+00  3.00000000E+00  3.00000000E+00  3.00000000E+00
  3.00000000E+00  3.00000000E+00  3.00000000E+00  3.00000000E+00  2.00000000E+00
  2.00000000E+00  1.00000000E+00  1.00000000E+00  3.00000000E+00  2.00000000E+00
  2.00000000E+00  3.00000000E+00  2.00000000E+00  2.00000000E+00  1.00000000E+00
  1.00000000E+00  3.00000000E+00  3.00000000E+00  2.00000000E+00  2.00000000E+00
  3.00000000E+00  3.00000000E+00  4.00000000E+00  4.00000000E+00  2.00000000E+00
  2.00000000E+00  3.00000000E+00  3.00000000E+00  4.00000000E+00  3.00000000E+00
  3.00000000E+00  3.00000000E+00  1.00000000E+00  3.00000000E+00  3.00000000E+00
  3.00000000E+00  3.00000000E+00  4.00000000E+00  4.00000000E+00  3.00000000E+00
  2.00000000E+00  2.00000000E+00  3.00000000E+00  3.00000000E+00  3.00000000E+00
  3.00000000E+00  3.00000000E+00  3.00000000E+00  3.00000000E+00  3.00000000E+00
  3.00000000E+00  3.00000000E+00  3.00000000E+00  3.00000000E+00  3.00000000E+00
  3.00000000E+00  3.00000000E+00  3.00000000E+00  3.00000000E+00  3.00000000E+00
  3.00000000E+00  3.00000000E+00  3.00000000E+00  4.00000000E+00  3.00000000E+00
  2.00000000E+00  2.00000000E+00  1.00000000E+00  1.00000000E+00  3.00000000E+00
  2.00000000E+00  2.00000000E+00  3.00000000E+00  2.00000000E+00  2.00000000E+00
  1.00000000E+00  1.00000000E+00  3.00000000E+00  2.00000000E+00  2.00000000E+00
  3.00000000E+00  2.00000000E+00  2.00000000E+00  1.00000000E+00  1.00000000E+00
  3.00000000E+00  3.00000000E+00  2.00000000E+00  2.00000000E+00  3.00000000E+00
  3.00000000E+00  3.00000000E+00  4.00000000E+00  2.00000000E+00  2.00000000E+00
  4.00000000E+00  1.00000000E+00  3.00000000E+00  3.00000000E+00  1.00000000E+00
  3.00000000E+00  3.00000000E+00  4.00000000E+00  3.00000000E+00  2.00000000E+00
  2.00000000E+00  3.00000000E+00  3.00000000E+00  3.00000000E+00  3.00000000E+00
  2.00000000E+00  2.00000000E+00  1.00000000E+00  1.00000000E+00  3.00000000E+00
  2.00000000E+00  2.00000000E+00  3.00000000E+00  2.00000000E+00  2.00000000E+00
  1.00000000E+00  1.00000000E+00  3.00000000E+00  3.00000000E+00  2.00000000E+00
  2.00000000E+00  3.00000000E+00  3.00000000E+00  3.00000000E+00  4.00000000E+00
  2.00000000E+00  2.00000000E+00  4.00000000E+00  1.00000000E+00  3.00000000E+00
  3.00000000E+00  3.00000000E+00  3.00000000E+00  3.00000000E+00  4.00000000E+00
  3.00000000E+00  2.00000000E+00  2.00000000E+00  3.00000000E+00  2.00000000E+00
  2.00000000E+00  2.00000000E+00  2.00000000E+00  2.00000000E+00  2.00000000E+00
  2.00000000E+00  2.00000000E+00  2.00000000E+00  2.00000000E+00  2.00000000E+00
  2.00000000E+00  2.00000000E+00  2.00000000E+00  2.00000000E+00  2.00000000E+00
  2.00000000E+00  2.00000000E+00  2.00000000E+00  2.00000000E+00  2.00000000E+00
  2.00000000E+00  2.00000000E+00  2.00000000E+00  2.00000000E+00  2.00000000E+00
  2.00000000E+00  2.00000000E+00  2.00000000E+00  2.00000000E+00  2.00000000E+00
  2.00000000E+00  3.00000000E+00  2.00000000E+00  2.00000000E+00  1.00000000E+00
  1.00000000E+00  3.00000000E+00  3.00000000E+00  2.00000000E+00  2.00000000E+00
  3.00000000E+00  3.00000000E+00  3.00000000E+00  4.00000000E+00  2.00000000E+00
  2.00000000E+00  4.00000000E+00  4.00000000E+00  1.00000000E+00  3.00000000E+00
  3.00000000E+00  3.00000000E+00  3.00000000E+00  3.00000000E+00  4.00000000E+00
  3.00000000E+00  2.00000000E+00  2.00000000E+00  3.00000000E+00  3.00000000E+00
  2.00000000E+00  2.00000000E+00  1.00000000E+00  1.00000000E+00  3.00000000E+00
  3.00000000E+00  2.00000000E+00  2.00000000E+00  3.00000000E+00  3.00000000E+00
  3.00000000E+00  4.00000000E+00  2.00000000E+00  2.00000000E+00  4.00000000E+00
  4.00000000E+00  1.00000000E+00  3.00000000E+00  3.00000000E+00  3.00000000E+00
  3.00000000E+00  3.00000000E+00  4.00000000E+00  3.00000000E+00  2.00000000E+00
  2.00000000E+00  3.00000000E+00  2.00000000E+00  2.00000000E+00  2.00000000E+00
  2.00000000E+00  2.00000000E+00  2.00000000E+00  2.00000000E+00  2.00000000E+00
  2.00000000E+00  2.00000000E+00  2.00000000E+00  2.00000000E+00  2.00000000E+00
  2.00000000E+00  2.00000000E+00  2.00000000E+00  2.00000000E+00  2.00000000E+00
  2.00000000E+00  2.00000000E+00  2.00000000E+00  3.00000000E+00  2.00000000E+00
  2.00000000E+00  1.00000000E+00  1.00000000E+00  3.00000000E+00  2.00000000E+00
  2.00000000E+00  3.00000000E+00  2.00000000E+00  2.00000000E+00  1.00000000E+00
  1.00000000E+00  3.00000000E+00  2.00000000E+00  2.00000000E+00  3.00000000E+00
  2.00000000E+00  2.00000000E+00  1.00000000E+00  1.00000000E+00  3.00000000E+00
  3.00000000E+00  2.00000000E+00  2.00000000E+00  3.00000000E+00  3.00000000E+00
  3.00000000E+00  4.00000000E+00  2.00000000E+00  2.00000000E+00  3.00000000E+00
  4.00000000E+00  4.00000000E+00  1.00000000E+00  3.00000000E+00  3.00000000E+00
  3.00000000E+00  3.00000000E+00  3.00000000E+00  4.00000000E+00  3.00000000E+00
  2.00000000E+00  2.00000000E+00  3.00000000E+00  3.00000000E+00  3.00000000E+00
  3.00000000E+00  3.00000000E+00  3.00000000E+00  3.00000000E+00  3.00000000E+00
  3.00000000E+00  3.00000000E+00  3.00000000E+00  3.00000000E+00  3.00000000E+00
  3.00000000E+00  3.00000000E+00  3.00000000E+00  3.00000000E+00  3.00000000E+00
  3.00000000E+00  3.00000000E+00  3.00000000E+00  3.00000000E+00  3.00000000E+00
  3.00000000E+00  3.00000000E+00  3.00000000E+00  2.00000000E+00  2.00000000E+00
  1.00000000E+00  1.00000000E+00  3.00000000E+00  2.00000000E+00  2.00000000E+00
  3.00000000E+00  2.00000000E+00  2.00000000E+00  1.00000000E+00  1.00000000E+00
  3.00000000E+00  3.00000000E+00  2.00000000E+00  2.00000000E+00  3.00000000E+00
  3.00000000E+00  3.00000000E+00  4.00000000E+00  2.00000000E+00  2.00000000E+00
  4.00000000E+00  4.00000000E+00  1.00000000E+00  3.00000000E+00  3.00000000E+00
  3.00000000E+00  3.00000000E+00  3.00000000E+00  4.00000000E+00  3.00000000E+00
  2.00000000E+00  2.00000000E+00  3.00000000E+00  2.00000000E+00  2.00000000E+00
  2.00000000E+00  2.00000000E+00  2.00000000E+00  2.00000000E+00  2.00000000E+00
  2.00000000E+00  2.00000000E+00  2.00000000E+00  2.00000000E+00  2.00000000E+00
  2.00000000E+00  2.00000000E+00  2.00000000E+00  2.00000000E+00  2.00000000E+00
  2.00000000E+00  4.00000000E+00  2.00000000E+00  2.00000000E+00  4.00000000E+00
  2.00000000E+00  3.00000000E+00  2.00000000E+00  2.00000000E+00  1.00000000E+00
  1.00000000E+00  3.00000000E+00  3.00000000E+00  2.00000000E+00  2.00000000E+00
  3.00000000E+00  3.00000000E+00  4.00000000E+00  4.00000000E+00  3.00000000E+00
  3.00000000E+00  1.00000000E+00  3.00000000E+00  3.00000000E+00  4.00000000E+00
  3.00000000E+00  3.00000000E+00  2.00000000E+00  2.00000000E+00  2.00000000E+00
  2.00000000E+00  2.00000000E+00  2.00000000E+00  3.00000000E+00  3.00000000E+00
  3.00000000E+00  2.00000000E+00  2.00000000E+00  2.00000000E+00  2.00000000E+00
  2.00000000E+00  2.00000000E+00  2.00000000E+00  2.00000000E+00  2.00000000E+00
  2.00000000E+00  2.00000000E+00  2.00000000E+00  2.00000000E+00  2.00000000E+00
  2.00000000E+00  2.00000000E+00  2.00000000E+00  2.00000000E+00  2.00000000E+00
  2.00000000E+00  2.00000000E+00  2.00000000E+00  2.00000000E+00  2.00000000E+00
  2.00000000E+00  2.00000000E+00  2.00000000E+00  2.00000000E+00  2.00000000E+00
  2.00000000E+00  2.00000000E+00  2.00000000E+00  2.00000000E+00  2.00000000E+00
  2.00000000E+00  2.00000000E+00  2.00000000E+00  2.00000000E+00  2.00000000E+00
  2.00000000E+00  2.00000000E+00  2.00000000E+00  2.00000000E+00  2.00000000E+00
  2.00000000E+00  2.00000000E+00  2.00000000E+00  2.00000000E+00  1.00000000E+00
  1.00000000E+00  1.00000000E+00  1.00000000E+00  1.00000000E+00  1.00000000E+00
  1.00000000E+00  1.00000000E+00  1.00000000E+00  1.00000000E+00  1.00000000E+00
  1.00000000E+00  1.00000000E+00  1.00000000E+00  1.00000000E+00  1.00000000E+00
  1.00000000E+00  1.00000000E+00  1.00000000E+00  1.00000000E+00  1.00000000E+00
  1.00000000E+00  1.00000000E+00  1.00000000E+00  1.00000000E+00  1.00000000E+00
  1.00000000E+00  1.00000000E+00  1.00000000E+00  1.00000000E+00  1.00000000E+00
  1.00000000E+00  1.00000000E+00  1.00000000E+00  1.00000000E+00  1.00000000E+00
  1.00000000E+00  1.00000000E+00  1.00000000E+00  1.00000000E+00  1.00000000E+00
  1.00000000E+00  1.00000000E+00  1.00000000E+00  1.00000000E+00  1.00000000E+00
  1.00000000E+00  1.00000000E+00  1.00000000E+00  1.00000000E+00  1.00000000E+00
  1.00000000E+00  1.00000000E+00  1.00000000E+00  1.00000000E+00  1.00000000E+00
  1.00000000E+00  1.00000000E+00  1.00000000E+00  1.00000000E+00  1.00000000E+00
  1.00000000E+00  1.00000000E+00  1.00000000E+00  1.00000000E+00  1.00000000E+00
  1.00000000E+00  1.00000000E+00  1.00000000E+00  1.00000000E+00  1.00000000E+00
  1.00000000E+00  1.00000000E+00  1.00000000E+00  1.00000000E+00  1.00000000E+00
  1.00000000E+00  1.00000000E+00  1.00000000E+00  1.00000000E+00  1.00000000E+00
  1.00000000E+00  1.00000000E+00  1.00000000E+00  1.00000000E+00  1.00000000E+00
  1.00000000E+00  1.00000000E+00  1.00000000E+00  1.00000000E+00  1.00000000E+00
  1.00000000E+00  1.00000000E+00  1.00000000E+00  1.00000000E+00  1.00000000E+00
  1.00000000E+00  1.00000000E+00  1.00000000E+00  1.00000000E+00  1.00000000E+00
  1.00000000E+00  1.00000000E+00  1.00000000E+00  1.00000000E+00  1.00000000E+00
  1.00000000E+00  1.00000000E+00  1.00000000E+00  1.00000000E+00  1.00000000E+00
  1.00000000E+00  1.00000000E+00  1.00000000E+00  1.00000000E+00  1.00000000E+00
  1.00000000E+00  1.00000000E+00  1.00000000E+00  1.00000000E+00  1.00000000E+00
  1.00000000E+00  1.00000000E+00  1.00000000E+00  1.00000000E+00  1.00000000E+00
  1.00000000E+00  1.00000000E+00  1.00000000E+00  1.00000000E+00  1.00000000E+00
  1.00000000E+00  1.00000000E+00  1.00000000E+00  1.00000000E+00  1.00000000E+00
  1.00000000E+00  1.00000000E+00  1.00000000E+00  1.00000000E+00  1.00000000E+00
  1.00000000E+00  1.00000000E+00  1.00000000E+00  1.00000000E+00  1.00000000E+00
  1.00000000E+00  1.00000000E+00  1.00000000E+00  1.00000000E+00  1.00000000E+00
  1.00000000E+00  1.00000000E+00  1.00000000E+00  1.00000000E+00  1.00000000E+00
  1.00000000E+00  1.00000000E+00  1.00000000E+00  1.00000000E+00  1.00000000E+00
  1.00000000E+00  1.00000000E+00  1.00000000E+00  1.00000000E+00  1.00000000E+00
  1.00000000E+00  1.00000000E+00  1.00000000E+00  1.00000000E+00  1.00000000E+00
  1.00000000E+00  1.00000000E+00  1.00000000E+00  1.00000000E+00  1.00000000E+00
  1.00000000E+00  1.00000000E+00  1.00000000E+00  1.00000000E+00  1.00000000E+00
  1.00000000E+00  1.00000000E+00  1.00000000E+00  1.00000000E+00  1.00000000E+00
  1.00000000E+00  1.00000000E+00  1.00000000E+00  1.00000000E+00  1.00000000E+00
  1.00000000E+00  1.00000000E+00  1.00000000E+00  1.00000000E+00  1.00000000E+00
  1.00000000E+00  1.00000000E+00  1.00000000E+00  1.00000000E+00  1.00000000E+00
  1.00000000E+00  1.00000000E+00  1.00000000E+00  1.00000000E+00  1.00000000E+00
  1.00000000E+00  1.00000000E+00  1.00000000E+00  1.00000000E+00  1.00000000E+00
  1.00000000E+00  1.00000000E+00  1.00000000E+00  1.00000000E+00  1.00000000E+00
  1.00000000E+00  1.00000000E+00  1.00000000E+00  1.00000000E+00  1.00000000E+00
  1.00000000E+00  1.00000000E+00  1.00000000E+00  1.00000000E+00  1.00000000E+00
  1.00000000E+00  1.00000000E+00  1.00000000E+00  1.00000000E+00  1.00000000E+00
  1.00000000E+00
%FLAG DIHEDRAL_PHASE
%FORMAT(5E16.8)
  0.00000000E+00  3.14159265E+00  3.14159265E+00  3.14159265E+00  3.14159265E+00
  0.00000000E+00  0.00000000E+00  0.00000000E+00  0.00000000E+00  0.00000000E+00
  3.14159265E+00  3.14159265E+00  3.14159265E+00  0.00000000E+00  0.00000000E+00
  3.14159265E+00  3.14159265E+00  3.14159265E+00  3.14159265E+00  3.14159265E+00
  3.14159265E+00  3.14159265E+00  3.14159265E+00  0.00000000E+00  3.14159265E+00
  0.00000000E+00  0.00000000E+00  3.14159265E+00  0.00000000E+00  0.00000000E+00
  0.00000000E+00  0.00000000E+00  3.14159265E+00  0.00000000E+00  3.14159265E+00
  3.14159265E+00  3.14159265E+00  0.00000000E+00  0.00000000E+00  3.14159265E+00
  0.00000000E+00  0.00000000E+00  0.00000000E+00  0.00000000E+00  3.14159265E+00
  3.14159265E+00  0.00000000E+00  3.14159265E+00  0.00000000E+00  0.00000000E+00
  0.00000000E+00  0.00000000E+00  3.14159265E+00  3.14159265E+00  3.14159265E+00
  3.14159265E+00  3.14159265E+00  3.14159265E+00  3.14159265E+00  3.14159265E+00
  0.00000000E+00  3.14159265E+00  3.14159265E+00  3.14159265E+00  3.14159265E+00
  0.00000000E+00  3.14159265E+00  0.00000000E+00  0.00000000E+00  3.14159265E+00
  0.00000000E+00  3.14159265E+00  0.00000000E+00  3.14159265E+00  3.14159265E+00
  3.14159265E+00  3.14159265E+00  0.00000000E+00  0.00000000E+00  0.00000000E+00
  0.00000000E+00  0.00000000E+00  0.00000000E+00  0.00000000E+00  0.00000000E+00
  0.00000000E+00  0.00000000E+00  0.00000000E+00  0.00000000E+00  3.14159265E+00
  3.14159265E+00  3.14159265E+00  3.14159265E+00  0.00000000E+00  0.00000000E+00
  0.00000000E+00  0.00000000E+00  0.00000000E+00  0.00000000E+00  0.00000000E+00
  3.14159265E+00  3.14159265E+00  0.00000000E+00  3.14159265E+00  3.14159265E+00
  3.14159265E+00  0.00000000E+00  0.00000000E+00  0.00000000E+00  3.14159265E+00
  3.14159265E+00  3.14159265E+00  3.14159265E+00  3.14159265E+00  0.00000000E+00
  0.00000000E+00  0.00000000E+00  0.00000000E+00  3.14159265E+00  3.14159265E+00
  3.14159265E+00  0.00000000E+00  0.00000000E+00  0.00000000E+00  3.14159265E+00
  3.14159265E+00  0.00000000E+00  0.00000000E+00  3.14159265E+00  0.00000000E+00
  0.00000000E+00  0.00000000E+00  0.00000000E+00  0.00000000E+00  0.00000000E+00
  0.00000000E+00  0.00000000E+00  3.14159265E+00  3.14159265E+00  0.00000000E+00
  0.00000000E+00  0.00000000E+00  0.00000000E+00  0.00000000E+00  0.00000000E+00
  0.00000000E+00  0.00000000E+00  0.00000000E+00  3.14159265E+00  3.14159265E+00
  3.14159265E+00  0.00000000E+00  0.00000000E+00  0.00000000E+00  3.14159265E+00
  3.14159265E+00  3.14159265E+00  3.14159265E+00  3.14159265E+00  0.00000000E+00
  0.00000000E+00  0.00000000E+00  0.00000000E+00  3.14159265E+00  3.14159265E+00
  3.14159265E+00  0.00000000E+00  3.14159265E+00  3.14159265E+00  3.14159265E+00
  3.14159265E+00  0.00000000E+00  0.00000000E+00  0.00000000E+00  0.00000000E+00
  0.00000000E+00  0.00000000E+00  0.00000000E+00  0.00000000E+00  0.00000000E+00
  0.00000000E+00  0.00000000E+00  0.00000000E+00  0.00000000E+00  0.00000000E+00
  3.14159265E+00  3.14159265E+00  0.00000000E+00  0.00000000E+00  0.00000000E+00
  0.00000000E+00  0.00000000E+00  0.00000000E+00  0.00000000E+00  0.00000000E+00
  0.00000000E+00  0.00000000E+00  0.00000000E+00  0.00000000E+00  0.00000000E+00
  0.00000000E+00  0.00000000E+00  0.00000000E+00  0.00000000E+00  0.00000000E+00
  0.00000000E+00  0.00000000E+00  0.00000000E+00  0.00000000E+00  3.14159265E+00
  3.14159265E+00  3.14159265E+00  0.00000000E+00  0.00000000E+00  0.00000000E+00
  3.14159265E+00  3.14159265E+00  3.14159265E+00  3.14159265E+00  3.14159265E+00
  0.00000000E+00  0.00000000E+00  0.00000000E+00  3.14159265E+00  3.14159265E+00
  3.14159265E+00  3.14159265E+00  3.14159265E+00  0.00000000E+00  0.00000000E+00
  0.00000000E+00  0.00000000E+00  3.14159265E+00  3.14159265E+00  3.14159265E+00
  0.00000000E+00  0.00000000E+00  0.00000000E+00  3.14159265E+00  3.14159265E+00
  0.00000000E+00  0.00000000E+00  0.00000000E+00  0.00000000E+00  0.00000000E+00
  0.00000000E+00  0.00000000E+00  0.00000000E+00  0.00000000E+00  3.14159265E+00
  3.14159265E+00  0.00000000E+00  0.00000000E+00  0.00000000E+00  3.14159265E+00
  3.14159265E+00  3.14159265E+00  0.00000000E+00  0.00000000E+00  0.00000000E+00
  3.14159265E+00  3.14159265E+00  3.14159265E+00  3.14159265E+00  3.14159265E+00
  0.00000000E+00  0.00000000E+00  0.00000000E+00  0.00000000E+00  3.14159265E+00
  3.14159265E+00  3.14159265E+00  0.00000000E+00  0.00000000E+00  0.00000000E+00
  3.14159265E+00  3.14159265E+00  3.14159265E+00  0.00000000E+00  0.00000000E+00
  0.00000000E+00  0.00000000E+00  0.00000000E+00  0.00000000E+00  0.00000000E+00
  0.00000000E+00  3.14159265E+00  3.14159265E+00  0.00000000E+00  3.14159265E+00
  3.14159265E+00  3.14159265E+00  3.14159265E+00  3.14159265E+00  3.14159265E+00
  3.14159265E+00  3.14159265E+00  3.14159265E+00  3.14159265E+00  3.14159265E+00
  3.14159265E+00  3.14159265E+00  3.14159265E+00  3.14159265E+00  3.14159265E+00
  3.14159265E+00  3.14159265E+00  3.14159265E+00  3.14159265E+00  3.14159265E+00
  3.14159265E+00  3.14159265E+00  3.14159265E+00  3.14159265E+00  3.14159265E+00
  3.14159265E+00  3.14159265E+00  3.14159265E+00  3.14159265E+00  3.14159265E+00
  3.14159265E+00  3.14159265E+00  3.14159265E+00  3.14159265E+00  0.00000000E+00
  0.00000000E+00  0.00000000E+00  0.00000000E+00  3.14159265E+00  3.14159265E+00
  3.14159265E+00  0.00000000E+00  0.00000000E+00  0.00000000E+00  3.14159265E+00
  3.14159265E+00  3.14159265E+00  3.14159265E+00  0.00000000E+00  0.00000000E+00
  0.00000000E+00  0.00000000E+00  0.00000000E+00  0.00000000E+00  0.00000000E+00
  0.00000000E+00  3.14159265E+00  3.14159265E+00  0.00000000E+00  3.14159265E+00
  3.14159265E+00  3.14159265E+00  0.00000000E+00  0.00000000E+00  0.00000000E+00
  0.00000000E+00  3.14159265E+00  3.14159265E+00  3.14159265E+00  0.00000000E+00
  0.00000000E+00  3.14159265E+00  3.14159265E+00  3.14159265E+00  3.14159265E+00
  3.14159265E+00  0.00000000E+00  0.00000000E+00  0.00000000E+00  0.00000000E+00
  0.00000000E+00  0.00000000E+00  3.14159265E+00  0.00000000E+00  3.14159265E+00
  3.14159265E+00  0.00000000E+00  3.14159265E+00  3.14159265E+00  3.14159265E+00
  3.14159265E+00  3.14159265E+00  3.14159265E+00  3.14159265E+00  3.14159265E+00
  3.14159265E+00  3.14159265E+00  3.14159265E+00  3.14159265E+00  3.14159265E+00
  3.14159265E+00  3.14159265E+00  3.14159265E+00  3.14159265E+00  3.14159265E+00
  3.14159265E+00  3.14159265E+00  3.14159265E+00  3.14159265E+00  3.14159265E+00
  3.14159265E+00  0.00000000E+00  0.00000000E+00  0.00000000E+00  3.14159265E+00
  3.14159265E+00  3.14159265E+00  3.14159265E+00  3.14159265E+00  0.00000000E+00
  0.00000000E+00  0.00000000E+00  3.14159265E+00  3.14159265E+00  3.14159265E+00
  3.14159265E+00  3.14159265E+00  0.00000000E+00  0.00000000E+00  0.00000000E+00
  0.00000000E+00  3.14159265E+00  3.14159265E+00  3.14159265E+00  0.00000000E+00
  0.00000000E+00  0.00000000E+00  3.14159265E+00  3.14159265E+00  0.00000000E+00
  0.00000000E+00  0.00000000E+00  0.00000000E+00  0.00000000E+00  0.00000000E+00
  0.00000000E+00  0.00000000E+00  0.00000000E+00  0.00000000E+00  0.00000000E+00
  3.14159265E+00  3.14159265E+00  0.00000000E+00  0.00000000E+00  0.00000000E+00
  0.00000000E+00  0.00000000E+00  0.00000000E+00  0.00000000E+00  0.00000000E+00
  0.00000000E+00  0.00000000E+00  0.00000000E+00  0.00000000E+00  0.00000000E+00
  0.00000000E+00  0.00000000E+00  0.00000000E+00  0.00000000E+00  0.00000000E+00
  0.00000000E+00  0.00000000E+00  0.00000000E+00  0.00000000E+00  0.00000000E+00
  0.00000000E+00  0.00000000E+00  3.14159265E+00  3.14159265E+00  3.14159265E+00
  0.00000000E+00  0.00000000E+00  0.00000000E+00  3.14159265E+00  3.14159265E+00
  3.14159265E+00  3.14159265E+00  3.14159265E+00  0.00000000E+00  0.00000000E+00
  0.00000000E+00  0.00000000E+00  3.14159265E+00  3.14159265E+00  3.14159265E+00
  0.00000000E+00  0.00000000E+00  3.14159265E+00  3.14159265E+00  3.14159265E+00
  3.14159265E+00  3.14159265E+00  0.00000000E+00  0.00000000E+00  0.00000000E+00
  0.00000000E+00  0.00000000E+00  0.00000000E+00  3.14159265E+00  0.00000000E+00
  3.14159265E+00  3.14159265E+00  0.00000000E+00  3.14159265E+00  3.14159265E+00
  3.14159265E+00  3.14159265E+00  3.14159265E+00  3.14159265E+00  3.14159265E+00
  3.14159265E+00  3.14159265E+00  3.14159265E+00  3.14159265E+00  3.14159265E+00
  3.14159265E+00  3.14159265E+00  3.14159265E+00  3.14159265E+00  3.14159265E+00
  3.14159265E+00  0.00000000E+00  3.14159265E+00  3.14159265E+00  0.00000000E+00
  3.14159265E+00  3.14159265E+00  3.14159265E+00  3.14159265E+00  0.00000000E+00
  0.00000000E+00  0.00000000E+00  0.00000000E+00  3.14159265E+00  3.14159265E+00
  0.00000000E+00  0.00000000E+00  0.00000000E+00  0.00000000E+00  0.00000000E+00
  0.00000000E+00  0.00000000E+00  0.00000000E+00  0.00000000E+00  0.00000000E+00
  0.00000000E+00  0.00000000E+00  3.14159265E+00  3.14159265E+00  3.14159265E+00
  3.14159265E+00  3.14159265E+00  3.14159265E+00  0.00000000E+00  0.00000000E+00
  0.00000000E+00  3.14159265E+00  3.14159265E+00  3.14159265E+00  3.14159265E+00
  3.14159265E+00  3.14159265E+00  3.14159265E+00  3.14159265E+00  3.14159265E+00
  3.14159265E+00  3.14159265E+00  3.14159265E+00  3.14159265E+00  3.14159265E+00
  3.14159265E+00  3.14159265E+00  3.14159265E+00  3.14159265E+00  3.14159265E+00
  3.14159265E+00  3.14159265E+00  3.14159265E+00  3.14159265E+00  3.14159265E+00
  3.14159265E+00  3.14159265E+00  3.14159265E+00  3.14159265E+00  3.14159265E+00
  3.14159265E+00  3.14159265E+00  3.14159265E+00  3.14159265E+00  3.14159265E+00
  3.14159265E+00  3.14159265E+00  3.14159265E+00  3.14159265E+00  3.14159265E+00
  3.14159265E+00  3.14159265E+00  3.14159265E+00  3.14159265E+00  3.14159265E+00
  3.14159265E+00  3.14159265E+00  3.14159265E+00  3.14159265E+00  0.00000000E+00
  0.00000000E+00  0.00000000E+00  0.00000000E+00  0.00000000E+00  0.00000000E+00
  0.00000000E+00  0.00000000E+00  0.00000000E+00  0.00000000E+00  0.00000000E+00
  0.00000000E+00  0.00000000E+00  0.00000000E+00  0.00000000E+00  0.00000000E+00
  0.00000000E+00  0.00000000E+00  0.00000000E+00  0.00000000E+00  0.00000000E+00
  0.00000000E+00  0.00000000E+00  0.00000000E+00  0.00000000E+00  0.00000000E+00
  0.00000000E+00  0.00000000E+00  0.00000000E+00  0.00000000E+00  0.00000000E+00
  0.00000000E+00  0.00000000E+00  0.00000000E+00  0.00000000E+00  0.00000000E+00
  0.00000000E+00  0.00000000E+00  0.00000000E+00  0.00000000E+00  0.00000000E+00
  0.00000000E+00  0.00000000E+00  0.00000000E+00  0.00000000E+00  0.00000000E+00
  0.00000000E+00  0.00000000E+00  0.00000000E+00  0.00000000E+00  0.00000000E+00
  0.00000000E+00  0.00000000E+00  0.00000000E+00  0.00000000E+00  0.00000000E+00
  0.00000000E+00  0.00000000E+00  0.00000000E+00  0.00000000E+00  0.00000000E+00
  0.00000000E+00  0.00000000E+00  0.00000000E+00  0.00000000E+00  0.00000000E+00
  0.00000000E+00  0.00000000E+00  0.00000000E+00  0.00000000E+00  0.00000000E+00
  0.00000000E+00  0.00000000E+00  0.00000000E+00  0.00000000E+00  0.00000000E+00
  0.00000000E+00  0.00000000E+00  0.00000000E+00  0.00000000E+00  0.00000000E+00
  0.00000000E+00  0.00000000E+00  0.00000000E+00  0.00000000E+00  0.00000000E+00
  0.00000000E+00  0.00000000E+00  0.00000000E+00  0.00000000E+00  0.00000000E+00
  0.00000000E+00  0.00000000E+00  0.00000000E+00  0.00000000E+00  0.00000000E+00
  0.00000000E+00  0.00000000E+00  0.00000000E+00  0.00000000E+00  0.00000000E+00
  0.00000000E+00  0.00000000E+00  0.00000000E+00  0.00000000E+00  0.00000000E+00
  0.00000000E+00  0.00000000E+00  0.00000000E+00  0.00000000E+00  0.00000000E+00
  0.00000000E+00  0.00000000E+00  0.00000000E+00  0.00000000E+00  0.00000000E+00
  0.00000000E+00  0.00000000E+00  0.00000000E+00  0.00000000E+00  0.00000000E+00
  0.00000000E+00  0.00000000E+00  0.00000000E+00  0.00000000E+00  0.00000000E+00
  0.00000000E+00  0.00000000E+00  0.00000000E+00  0.00000000E+00  0.00000000E+00
  0.00000000E+00  0.00000000E+00  0.00000000E+00  0.00000000E+00  0.00000000E+00
  0.00000000E+00  0.00000000E+00  0.00000000E+00  0.00000000E+00  0.00000000E+00
  0.00000000E+00  0.00000000E+00  0.00000000E+00  0.00000000E+00  0.00000000E+00
  0.00000000E+00  0.00000000E+00  0.00000000E+00  0.00000000E+00  0.00000000E+00
  0.00000000E+00  0.00000000E+00  0.00000000E+00  0.00000000E+00  0.00000000E+00
  0.00000000E+00  0.00000000E+00  0.00000000E+00  0.00000000E+00  0.00000000E+00
  0.00000000E+00  0.00000000E+00  0.00000000E+00  0.00000000E+00  0.00000000E+00
  0.00000000E+00  0.00000000E+00  0.00000000E+00  0.00000000E+00  0.00000000E+00
  0.00000000E+00  0.00000000E+00  0.00000000E+00  0.00000000E+00  0.00000000E+00
  0.00000000E+00  0.00000000E+00  0.00000000E+00  0.00000000E+00  0.00000000E+00
  0.00000000E+00  0.00000000E+00  0.00000000E+00  0.00000000E+00  0.00000000E+00
  0.00000000E+00  0.00000000E+00  0.00000000E+00  0.00000000E+00  0.00000000E+00
  0.00000000E+00  0.00000000E+00  0.00000000E+00  0.00000000E+00  0.00000000E+00
  0.00000000E+00  0.00000000E+00  0.00000000E+00  0.00000000E+00  0.00000000E+00
  0.00000000E+00  0.00000000E+00  0.00000000E+00  0.00000000E+00  0.00000000E+00
  0.00000000E+00  0.00000000E+00  0.00000000E+00  0.00000000E+00  0.00000000E+00
  0.00000000E+00  0.00000000E+00  0.00000000E+00  0.00000000E+00  0.00000000E+00
  0.00000000E+00  0.00000000E+00  0.00000000E+00  0.00000000E+00  0.00000000E+00
  0.00000000E+00  0.00000000E+00  0.00000000E+00  0.00000000E+00  0.00000000E+00
  0.00000000E+00  0.00000000E+00  0.00000000E+00  0.00000000E+00  0.00000000E+00
  0.00000000E+00
%FLAG SCEE_SCALE_FACTOR
%FORMAT(5E16.8)
  1.00000000E+00  1.00000000E+00  1.00000000E+00  1.00000000E+00  1.00000000E+00
  1.00000000E+00  1.00000000E+00  1.00000000E+00  1.00000000E+00  1.00000000E+00
  1.00000000E+00  1.00000000E+00  1.00000000E+00  1.00000000E+00  1.00000000E+00
  1.00000000E+00  1.00000000E+00  1.00000000E+00  1.00000000E+00  1.00000000E+00
  1.00000000E+00  1.00000000E+00  1.00000000E+00  1.00000000E+00  1.00000000E+00
  1.00000000E+00  1.00000000E+00  1.00000000E+00  1.00000000E+00  1.00000000E+00
  1.00000000E+00  1.00000000E+00  1.00000000E+00  1.00000000E+00  1.00000000E+00
  1.00000000E+00  1.00000000E+00  1.00000000E+00  1.00000000E+00  1.00000000E+00
  1.00000000E+00  1.00000000E+00  1.00000000E+00  1.00000000E+00  1.00000000E+00
  1.00000000E+00  1.00000000E+00  1.00000000E+00  1.00000000E+00  1.00000000E+00
  1.00000000E+00  1.00000000E+00  1.00000000E+00  1.00000000E+00  1.00000000E+00
  1.00000000E+00  1.00000000E+00  1.00000000E+00  1.00000000E+00  1.00000000E+00
  1.00000000E+00  1.00000000E+00  1.00000000E+00  1.00000000E+00  1.00000000E+00
  1.00000000E+00  1.00000000E+00  1.00000000E+00  1.00000000E+00  1.00000000E+00
  1.00000000E+00  1.00000000E+00  1.00000000E+00  1.00000000E+00  1.00000000E+00
  1.00000000E+00  1.00000000E+00  1.20000000E+00  1.20000000E+00  1.20000000E+00
  1.20000000E+00  1.20000000E+00  1.20000000E+00  1.20000000E+00  1.20000000E+00
  1.20000000E+00  1.20000000E+00  1.20000000E+00  1.20000000E+00  1.20000000E+00
  1.20000000E+00  1.20000000E+00  1.20000000E+00  1.20000000E+00  1.20000000E+00
  1.20000000E+00  1.20000000E+00  1.20000000E+00  1.20000000E+00  1.20000000E+00
  1.20000000E+00  1.20000000E+00  1.20000000E+00  1.20000000E+00  1.20000000E+00
  1.20000000E+00  1.20000000E+00  1.20000000E+00  1.20000000E+00  1.20000000E+00
  1.20000000E+00  1.20000000E+00  1.20000000E+00  1.20000000E+00  1.20000000E+00
  1.20000000E+00  1.20000000E+00  1.20000000E+00  1.20000000E+00  1.20000000E+00
  1.20000000E+00  1.20000000E+00  1.20000000E+00  1.20000000E+00  1.20000000E+00
  1.20000000E+00  1.20000000E+00  1.20000000E+00  1.20000000E+00  1.20000000E+00
  1.20000000E+00  1.20000000E+00  1.20000000E+00  1.20000000E+00  1.20000000E+00
  1.20000000E+00  1.20000000E+00  1.20000000E+00  1.20000000E+00  1.20000000E+00
  1.20000000E+00  1.20000000E+00  1.20000000E+00  1.20000000E+00  1.20000000E+00
  1.20000000E+00  1.20000000E+00  1.20000000E+00  1.20000000E+00  1.20000000E+00
  1.20000000E+00  1.20000000E+00  1.20000000E+00  1.20000000E+00  1.20000000E+00
  1.20000000E+00  1.20000000E+00  1.20000000E+00  1.20000000E+00  1.20000000E+00
  1.20000000E+00  1.20000000E+00  1.20000000E+00  1.20000000E+00  1.20000000E+00
  1.20000000E+00  1.20000000E+00  1.20000000E+00  1.20000000E+00  1.20000000E+00
  1.20000000E+00  1.20000000E+00  1.20000000E+00  1.20000000E+00  1.20000000E+00
  1.20000000E+00  1.20000000E+00  1.20000000E+00  1.20000000E+00  1.20000000E+00
  1.20000000E+00  1.20000000E+00  1.20000000E+00  1.20000000E+00  1.20000000E+00
  1.20000000E+00  1.20000000E+00  1.20000000E+00  1.20000000E+00  1.20000000E+00
  1.20000000E+00  1.20000000E+00  1.20000000E+00  1.20000000E+00  1.20000000E+00
  1.20000000E+00  1.20000000E+00  1.20000000E+00  1.20000000E+00  1.20000000E+00
  1.20000000E+00  1.20000000E+00  1.20000000E+00  1.20000000E+00  1.20000000E+00
  1.20000000E+00  1.20000000E+00  1.20000000E+00  1.20000000E+00  1.20000000E+00
  1.20000000E+00  1.20000000E+00  1.20000000E+00  1.20000000E+00  1.20000000E+00
  1.20000000E+00  1.20000000E+00  1.20000000E+00  1.20000000E+00  1.20000000E+00
  1.20000000E+00  1.20000000E+00  1.20000000E+00  1.20000000E+00  1.20000000E+00
  1.20000000E+00  1.20000000E+00  1.20000000E+00  1.20000000E+00  1.20000000E+00
  1.20000000E+00  1.20000000E+00  1.20000000E+00  1.20000000E+00  1.20000000E+00
  1.20000000E+00  1.20000000E+00  1.20000000E+00  1.20000000E+00  1.20000000E+00
  1.20000000E+00  1.20000000E+00  1.20000000E+00  1.20000000E+00  1.20000000E+00
  1.20000000E+00  1.20000000E+00  1.20000000E+00  1.20000000E+00  1.20000000E+00
  1.20000000E+00  1.20000000E+00  1.20000000E+00  1.20000000E+00  1.20000000E+00
  1.20000000E+00  1.20000000E+00  1.20000000E+00  1.20000000E+00  1.20000000E+00
  1.20000000E+00  1.20000000E+00  1.20000000E+00  1.20000000E+00  1.20000000E+00
  1.20000000E+00  1.20000000E+00  1.20000000E+00  1.20000000E+00  1.20000000E+00
  1.20000000E+00  1.20000000E+00  1.20000000E+00  1.20000000E+00  1.20000000E+00
  1.20000000E+00  1.20000000E+00  1.20000000E+00  1.20000000E+00  1.20000000E+00
  1.20000000E+00  1.20000000E+00  1.20000000E+00  1.20000000E+00  1.20000000E+00
  1.20000000E+00  1.20000000E+00  1.20000000E+00  1.20000000E+00  1.20000000E+00
  1.20000000E+00  1.20000000E+00  1.20000000E+00  1.20000000E+00  1.20000000E+00
  1.20000000E+00  1.20000000E+00  1.20000000E+00  1.20000000E+00  1.20000000E+00
  1.20000000E+00  1.20000000E+00  1.20000000E+00  1.20000000E+00  1.20000000E+00
  1.20000000E+00  1.20000000E+00  1.20000000E+00  1.20000000E+00  1.20000000E+00
  1.20000000E+00  1.20000000E+00  1.20000000E+00  1.20000000E+00  1.20000000E+00
  1.20000000E+00  1.20000000E+00  1.20000000E+00  1.20000000E+00  1.20000000E+00
  1.20000000E+00  1.20000000E+00  1.20000000E+00  1.20000000E+00  1.20000000E+00
  1.20000000E+00  1.20000000E+00  1.20000000E+00  1.20000000E+00  1.20000000E+00
  1.20000000E+00  1.20000000E+00  1.20000000E+00  1.20000000E+00  1.20000000E+00
  1.20000000E+00  1.20000000E+00  1.20000000E+00  1.20000000E+00  1.20000000E+00
  1.20000000E+00  1.20000000E+00  1.20000000E+00  1.20000000E+00  1.20000000E+00
  1.20000000E+00  1.20000000E+00  1.20000000E+00  1.20000000E+00  1.20000000E+00
  1.20000000E+00  1.20000000E+00  1.20000000E+00  1.20000000E+00  1.20000000E+00
  1.20000000E+00  1.20000000E+00  1.20000000E+00  1.20000000E+00  1.20000000E+00
  1.20000000E+00  1.20000000E+00  1.20000000E+00  1.20000000E+00  1.20000000E+00
  1.20000000E+00  1.20000000E+00  1.20000000E+00  1.20000000E+00  1.20000000E+00
  1.20000000E+00  1.20000000E+00  1.20000000E+00  1.20000000E+00  1.20000000E+00
  1.20000000E+00  1.20000000E+00  1.20000000E+00  1.20000000E+00  1.20000000E+00
  1.20000000E+00  1.20000000E+00  1.20000000E+00  1.20000000E+00  1.20000000E+00
  1.20000000E+00  1.20000000E+00  1.20000000E+00  1.20000000E+00  1.20000000E+00
  1.20000000E+00  1.20000000E+00  1.20000000E+00  1.20000000E+00  1.20000000E+00
  1.20000000E+00  1.20000000E+00  1.20000000E+00  1.20000000E+00  1.20000000E+00
  1.20000000E+00  1.20000000E+00  1.20000000E+00  1.20000000E+00  1.20000000E+00
  1.20000000E+00  1.20000000E+00  1.20000000E+00  1.20000000E+00  1.20000000E+00
  1.20000000E+00  1.20000000E+00  1.20000000E+00  1.20000000E+00  1.20000000E+00
  1.20000000E+00  1.20000000E+00  1.20000000E+00  1.20000000E+00  1.20000000E+00
  1.20000000E+00  1.20000000E+00  1.20000000E+00  1.20000000E+00  1.20000000E+00
  1.20000000E+00  1.20000000E+00  1.20000000E+00  1.20000000E+00  1.20000000E+00
  1.20000000E+00  1.20000000E+00  1.20000000E+00  1.20000000E+00  1.20000000E+00
  1.20000000E+00  1.20000000E+00  1.20000000E+00  1.20000000E+00  1.20000000E+00
  1.20000000E+00  1.20000000E+00  1.20000000E+00  1.20000000E+00  1.20000000E+00
  1.20000000E+00  1.20000000E+00  1.20000000E+00  1.20000000E+00  1.20000000E+00
  1.20000000E+00  1.20000000E+00  1.20000000E+00  1.20000000E+00  1.20000000E+00
  1.20000000E+00  1.20000000E+00  1.20000000E+00  1.20000000E+00  1.20000000E+00
  1.20000000E+00  1.20000000E+00  1.20000000E+00  1.20000000E+00  1.20000000E+00
  1.20000000E+00  1.20000000E+00  1.20000000E+00  1.20000000E+00  1.20000000E+00
  1.20000000E+00  1.20000000E+00  1.20000000E+00  1.20000000E+00  1.20000000E+00
  1.20000000E+00  1.20000000E+00  1.20000000E+00  1.20000000E+00  1.20000000E+00
  1.20000000E+00  1.20000000E+00  1.20000000E+00  1.20000000E+00  1.20000000E+00
  1.20000000E+00  1.20000000E+00  1.20000000E+00  1.20000000E+00  1.20000000E+00
  1.20000000E+00  1.20000000E+00  1.20000000E+00  1.20000000E+00  1.20000000E+00
  1.20000000E+00  1.20000000E+00  1.20000000E+00  1.20000000E+00  1.20000000E+00
  1.20000000E+00  1.20000000E+00  1.20000000E+00  1.20000000E+00  1.20000000E+00
  1.20000000E+00  1.20000000E+00  1.20000000E+00  1.20000000E+00  1.20000000E+00
  1.20000000E+00  1.20000000E+00  1.20000000E+00  1.20000000E+00  1.20000000E+00
  1.20000000E+00  1.20000000E+00  1.20000000E+00  1.20000000E+00  1.20000000E+00
  1.20000000E+00  1.20000000E+00  1.20000000E+00  1.20000000E+00  1.20000000E+00
  1.20000000E+00  1.20000000E+00  1.20000000E+00  1.20000000E+00  1.20000000E+00
  1.20000000E+00  1.20000000E+00  1.20000000E+00  1.20000000E+00  1.20000000E+00
  1.20000000E+00  1.20000000E+00  1.20000000E+00  1.20000000E+00  1.20000000E+00
  1.20000000E+00  1.20000000E+00  1.20000000E+00  1.20000000E+00  1.20000000E+00
  1.20000000E+00  1.20000000E+00  1.20000000E+00  1.20000000E+00  1.20000000E+00
  1.20000000E+00  1.20000000E+00  1.20000000E+00  1.20000000E+00  1.20000000E+00
  1.20000000E+00  1.20000000E+00  1.20000000E+00  1.20000000E+00  1.20000000E+00
  1.20000000E+00  1.20000000E+00  1.20000000E+00  1.20000000E+00  1.20000000E+00
  1.20000000E+00  1.20000000E+00  1.20000000E+00  1.20000000E+00  1.20000000E+00
  1.20000000E+00  1.20000000E+00  1.20000000E+00  1.20000000E+00  1.20000000E+00
  1.20000000E+00  1.20000000E+00  1.20000000E+00  1.20000000E+00  1.20000000E+00
  1.20000000E+00  1.20000000E+00  1.20000000E+00  1.20000000E+00  1.20000000E+00
  1.20000000E+00  1.20000000E+00  1.20000000E+00  1.20000000E+00  1.20000000E+00
  1.20000000E+00  1.20000000E+00  1.20000000E+00  1.20000000E+00  1.20000000E+00
  1.20000000E+00  1.20000000E+00  1.20000000E+00  1.20000000E+00  1.20000000E+00
  1.20000000E+00  1.20000000E+00  1.20000000E+00  1.20000000E+00  1.20000000E+00
  1.20000000E+00  1.20000000E+00  1.20000000E+00  1.20000000E+00  1.20000000E+00
  1.20000000E+00  1.20000000E+00  1.20000000E+00  1.20000000E+00  1.20000000E+00
  1.20000000E+00  1.20000000E+00  1.20000000E+00  1.20000000E+00  1.20000000E+00
  1.20000000E+00  1.20000000E+00  1.20000000E+00  1.20000000E+00  1.20000000E+00
  1.20000000E+00  1.20000000E+00  1.20000000E+00  1.20000000E+00  1.20000000E+00
  1.20000000E+00  1.20000000E+00  1.20000000E+00  1.20000000E+00  1.20000000E+00
  1.20000000E+00  1.20000000E+00  1.20000000E+00  1.20000000E+00  1.20000000E+00
  1.20000000E+00  1.20000000E+00  1.20000000E+00  1.20000000E+00  1.20000000E+00
  1.20000000E+00  1.20000000E+00  1.20000000E+00  1.20000000E+00  1.20000000E+00
  1.20000000E+00  1.20000000E+00  1.20000000E+00  1.20000000E+00  1.20000000E+00
  1.20000000E+00  1.20000000E+00  1.20000000E+00  1.20000000E+00  1.20000000E+00
  1.20000000E+00  1.20000000E+00  1.20000000E+00  1.20000000E+00  1.20000000E+00
  1.20000000E+00  1.20000000E+00  1.20000000E+00  1.20000000E+00  1.20000000E+00
  1.20000000E+00  1.20000000E+00  1.20000000E+00  1.20000000E+00  1.20000000E+00
  1.20000000E+00  1.20000000E+00  1.20000000E+00  1.20000000E+00  1.20000000E+00
  1.20000000E+00  1.20000000E+00  1.20000000E+00  1.20000000E+00  1.20000000E+00
  1.20000000E+00  1.20000000E+00  1.20000000E+00  1.20000000E+00  1.20000000E+00
  1.20000000E+00  1.20000000E+00  1.20000000E+00  1.20000000E+00  1.20000000E+00
  1.20000000E+00  1.20000000E+00  1.20000000E+00  1.20000000E+00  1.20000000E+00
  1.20000000E+00  1.20000000E+00  1.20000000E+00  1.20000000E+00  1.20000000E+00
  1.20000000E+00  1.20000000E+00  1.20000000E+00  1.20000000E+00  1.20000000E+00
  1.20000000E+00  1.20000000E+00  1.20000000E+00  1.20000000E+00  1.20000000E+00
  1.20000000E+00  1.20000000E+00  1.20000000E+00  1.20000000E+00  1.20000000E+00
  1.20000000E+00  1.20000000E+00  1.20000000E+00  1.20000000E+00  1.20000000E+00
  1.20000000E+00  1.20000000E+00  1.20000000E+00  1.20000000E+00  1.20000000E+00
  1.20000000E+00  1.20000000E+00  1.20000000E+00  1.20000000E+00  1.20000000E+00
  1.20000000E+00  1.20000000E+00  1.20000000E+00  1.20000000E+00  1.20000000E+00
  1.20000000E+00  1.20000000E+00  1.20000000E+00  1.20000000E+00  1.20000000E+00
  1.20000000E+00  1.20000000E+00  1.20000000E+00  1.20000000E+00  1.20000000E+00
  1.20000000E+00  1.20000000E+00  1.20000000E+00  1.20000000E+00  1.20000000E+00
  1.20000000E+00  1.20000000E+00  1.20000000E+00  1.20000000E+00  1.20000000E+00
  1.20000000E+00  1.20000000E+00  1.20000000E+00  1.20000000E+00  1.20000000E+00
  1.20000000E+00  1.20000000E+00  1.20000000E+00  1.20000000E+00  1.20000000E+00
  1.20000000E+00  1.20000000E+00  1.20000000E+00  1.20000000E+00  1.20000000E+00
  1.20000000E+00  1.20000000E+00  1.20000000E+00  1.20000000E+00  1.20000000E+00
  1.20000000E+00  1.20000000E+00  1.20000000E+00  1.20000000E+00  1.20000000E+00
  1.20000000E+00  1.20000000E+00  1.20000000E+00  1.20000000E+00  1.20000000E+00
  1.20000000E+00  1.20000000E+00  1.20000000E+00  1.20000000E+00  1.20000000E+00
  1.20000000E+00  1.20000000E+00  1.20000000E+00  1.20000000E+00  1.20000000E+00
  1.20000000E+00  1.20000000E+00  1.20000000E+00  1.20000000E+00  1.20000000E+00
  1.20000000E+00  1.20000000E+00  1.20000000E+00  1.20000000E+00  1.20000000E+00
  1.20000000E+00  1.20000000E+00  1.20000000E+00  1.20000000E+00  1.20000000E+00
  1.20000000E+00  1.20000000E+00  1.20000000E+00  1.20000000E+00  1.20000000E+00
  1.20000000E+00  1.20000000E+00  1.20000000E+00  1.20000000E+00  1.20000000E+00
  1.20000000E+00  1.20000000E+00  1.20000000E+00  1.20000000E+00  1.20000000E+00
  1.20000000E+00  1.20000000E+00  1.20000000E+00  1.20000000E+00  1.20000000E+00
  1.20000000E+00
%FLAG SCNB_SCALE_FACTOR
%FORMAT(5E16.8)
  1.00000000E+00  1.00000000E+00  1.00000000E+00  1.00000000E+00  1.00000000E+00
  1.00000000E+00  1.00000000E+00  1.00000000E+00  1.00000000E+00  1.00000000E+00
  1.00000000E+00  1.00000000E+00  1.00000000E+00  1.00000000E+00  1.00000000E+00
  1.00000000E+00  1.00000000E+00  1.00000000E+00  1.00000000E+00  1.00000000E+00
  1.00000000E+00  1.00000000E+00  1.00000000E+00  1.00000000E+00  1.00000000E+00
  1.00000000E+00  1.00000000E+00  1.00000000E+00  1.00000000E+00  1.00000000E+00
  1.00000000E+00  1.00000000E+00  1.00000000E+00  1.00000000E+00  1.00000000E+00
  1.00000000E+00  1.00000000E+00  1.00000000E+00  1.00000000E+00  1.00000000E+00
  1.00000000E+00  1.00000000E+00  1.00000000E+00  1.00000000E+00  1.00000000E+00
  1.00000000E+00  1.00000000E+00  1.00000000E+00  1.00000000E+00  1.00000000E+00
  1.00000000E+00  1.00000000E+00  1.00000000E+00  1.00000000E+00  1.00000000E+00
  1.00000000E+00  1.00000000E+00  1.00000000E+00  1.00000000E+00  1.00000000E+00
  1.00000000E+00  1.00000000E+00  1.00000000E+00  1.00000000E+00  1.00000000E+00
  1.00000000E+00  1.00000000E+00  1.00000000E+00  1.00000000E+00  1.00000000E+00
  1.00000000E+00  1.00000000E+00  1.00000000E+00  1.00000000E+00  1.00000000E+00
  1.00000000E+00  1.00000000E+00  2.00000000E+00  2.00000000E+00  2.00000000E+00
  2.00000000E+00  2.00000000E+00  2.00000000E+00  2.00000000E+00  2.00000000E+00
  2.00000000E+00  2.00000000E+00  2.00000000E+00  2.00000000E+00  2.00000000E+00
  2.00000000E+00  2.00000000E+00  2.00000000E+00  2.00000000E+00  2.00000000E+00
  2.00000000E+00  2.00000000E+00  2.00000000E+00  2.00000000E+00  2.00000000E+00
  2.00000000E+00  2.00000000E+00  2.00000000E+00  2.00000000E+00  2.00000000E+00
  2.00000000E+00  2.00000000E+00  2.00000000E+00  2.00000000E+00  2.00000000E+00
  2.00000000E+00  2.00000000E+00  2.00000000E+00  2.00000000E+00  2.00000000E+00
  2.00000000E+00  2.00000000E+00  2.00000000E+00  2.00000000E+00  2.00000000E+00
  2.00000000E+00  2.00000000E+00  2.00000000E+00  2.00000000E+00  2.00000000E+00
  2.00000000E+00  2.00000000E+00  2.00000000E+00  2.00000000E+00  2.00000000E+00
  2.00000000E+00  2.00000000E+00  2.00000000E+00  2.00000000E+00  2.00000000E+00
  2.00000000E+00  2.00000000E+00  2.00000000E+00  2.00000000E+00  2.00000000E+00
  2.00000000E+00  2.00000000E+00  2.00000000E+00  2.00000000E+00  2.00000000E+00
  2.00000000E+00  2.00000000E+00  2.00000000E+00  2.00000000E+00  2.00000000E+00
  2.00000000E+00  2.00000000E+00  2.00000000E+00  2.00000000E+00  2.00000000E+00
  2.00000000E+00  2.00000000E+00  2.00000000E+00  2.00000000E+00  2.00000000E+00
  2.00000000E+00  2.00000000E+00  2.00000000E+00  2.00000000E+00  2.00000000E+00
  2.00000000E+00  2.00000000E+00  2.00000000E+00  2.00000000E+00  2.00000000E+00
  2.00000000E+00  2.00000000E+00  2.00000000E+00  2.00000000E+00  2.00000000E+00
  2.00000000E+00  2.00000000E+00  2.00000000E+00  2.00000000E+00  2.00000000E+00
  2.00000000E+00  2.00000000E+00  2.00000000E+00  2.00000000E+00  2.00000000E+00
  2.00000000E+00  2.00000000E+00  2.00000000E+00  2.00000000E+00  2.00000000E+00
  2.00000000E+00  2.00000000E+00  2.00000000E+00  2.00000000E+00  2.00000000E+00
  2.00000000E+00  2.00000000E+00  2.00000000E+00  2.00000000E+00  2.00000000E+00
  2.00000000E+00  2.00000000E+00  2.00000000E+00  2.00000000E+00  2.00000000E+00
  2.00000000E+00  2.00000000E+00  2.00000000E+00  2.00000000E+00  2.00000000E+00
  2.00000000E+00  2.00000000E+00  2.00000000E+00  2.00000000E+00  2.00000000E+00
  2.00000000E+00  2.00000000E+00  2.00000000E+00  2.00000000E+00  2.00000000E+00
  2.00000000E+00  2.00000000E+00  2.00000000E+00  2.00000000E+00  2.00000000E+00
  2.00000000E+00  2.00000000E+00  2.00000000E+00  2.00000000E+00  2.00000000E+00
  2.00000000E+00  2.00000000E+00  2.00000000E+00  2.00000000E+00  2.00000000E+00
  2.00000000E+00  2.00000000E+00  2.00000000E+00  2.00000000E+00  2.00000000E+00
  1.00000000E+10  2.00000000E+00  2.00000000E+00  2.00000000E+00  2.00000000E+00
  2.00000000E+00  2.00000000E+00  2.00000000E+00  2.00000000E+00  2.00000000E+00
  2.00000000E+00  2.00000000E+00  1.00000000E+10  1.00000000E+10  2.00000000E+00
  2.00000000E+00  2.00000000E+00  2.00000000E+00  2.00000000E+00  2.00000000E+00
  2.00000000E+00  2.00000000E+00  2.00000000E+00  2.00000000E+00  2.00000000E+00
  2.00000000E+00  2.00000000E+00  2.00000000E+00  2.00000000E+00  2.00000000E+00
  2.00000000E+00  2.00000000E+00  2.00000000E+00  2.00000000E+00  2.00000000E+00
  2.00000000E+00  2.00000000E+00  2.00000000E+00  2.00000000E+00  2.00000000E+00
  2.00000000E+00  2.00000000E+00  2.00000000E+00  2.00000000E+00  2.00000000E+00
  2.00000000E+00  2.00000000E+00  2.00000000E+00  2.00000000E+00  2.00000000E+00
  2.00000000E+00  2.00000000E+00  2.00000000E+00  2.00000000E+00  2.00000000E+00
  2.00000000E+00  2.00000000E+00  2.00000000E+00  2.00000000E+00  2.00000000E+00
  2.00000000E+00  2.00000000E+00  2.00000000E+00  2.00000000E+00  2.00000000E+00
  2.00000000E+00  2.00000000E+00  2.00000000E+00  2.00000000E+00  2.00000000E+00
  2.00000000E+00  2.00000000E+00  2.00000000E+00  2.00000000E+00  2.00000000E+00
  2.00000000E+00  2.00000000E+00  2.00000000E+00  2.00000000E+00  2.00000000E+00
  2.00000000E+00  2.00000000E+00  2.00000000E+00  2.00000000E+00  2.00000000E+00
  2.00000000E+00  2.00000000E+00  2.00000000E+00  2.00000000E+00  2.00000000E+00
  2.00000000E+00  2.00000000E+00  2.00000000E+00  2.00000000E+00  2.00000000E+00
  2.00000000E+00  2.00000000E+00  2.00000000E+00  2.00000000E+00  2.00000000E+00
  2.00000000E+00  2.00000000E+00  2.00000000E+00  2.00000000E+00  2.00000000E+00
  2.00000000E+00  2.00000000E+00  2.00000000E+00  2.00000000E+00  2.00000000E+00
  2.00000000E+00  2.00000000E+00  2.00000000E+00  2.00000000E+00  2.00000000E+00
  2.00000000E+00  2.00000000E+00  2.00000000E+00  2.00000000E+00  2.00000000E+00
  2.00000000E+00  2.00000000E+00  2.00000000E+00  2.00000000E+00  2.00000000E+00
  2.00000000E+00  2.00000000E+00  2.00000000E+00  2.00000000E+00  2.00000000E+00
  2.00000000E+00  2.00000000E+00  2.00000000E+00  2.00000000E+00  2.00000000E+00
  2.00000000E+00  2.00000000E+00  2.00000000E+00  2.00000000E+00  2.00000000E+00
  2.00000000E+00  2.00000000E+00  2.00000000E+00  2.00000000E+00  2.00000000E+00
  2.00000000E+00  2.00000000E+00  2.00000000E+00  2.00000000E+00  2.00000000E+00
  2.00000000E+00  2.00000000E+00  2.00000000E+00  2.00000000E+00  2.00000000E+00
  2.00000000E+00  2.00000000E+00  2.00000000E+00  2.00000000E+00  2.00000000E+00
  2.00000000E+00  2.00000000E+00  2.00000000E+00  2.00000000E+00  2.00000000E+00
  2.00000000E+00  2.00000000E+00  2.00000000E+00  2.00000000E+00  2.00000000E+00
  2.00000000E+00  2.00000000E+00  2.00000000E+00  2.00000000E+00  2.00000000E+00
  2.00000000E+00  2.00000000E+00  2.00000000E+00  2.00000000E+00  2.00000000E+00
  2.00000000E+00  2.00000000E+00  2.00000000E+00  2.00000000E+00  2.00000000E+00
  2.00000000E+00  2.00000000E+00  2.00000000E+00  2.00000000E+00  2.00000000E+00
  2.00000000E+00  2.00000000E+00  2.00000000E+00  2.00000000E+00  2.00000000E+00
  2.00000000E+00  2.00000000E+00  2.00000000E+00  2.00000000E+00  2.00000000E+00
  2.00000000E+00  2.00000000E+00  2.00000000E+00  2.00000000E+00  2.00000000E+00
  2.00000000E+00  2.00000000E+00  2.00000000E+00  2.00000000E+00  2.00000000E+00
  2.00000000E+00  2.00000000E+00  2.00000000E+00  2.00000000E+00  2.00000000E+00
  2.00000000E+00  2.00000000E+00  2.00000000E+00  2.00000000E+00  2.00000000E+00
  2.00000000E+00  2.00000000E+00  2.00000000E+00  2.00000000E+00  2.00000000E+00
  2.00000000E+00  2.00000000E+00  2.00000000E+00  2.00000000E+00  2.00000000E+00
  2.00000000E+00  2.00000000E+00  2.00000000E+00  2.00000000E+00  2.00000000E+00
  2.00000000E+00  2.00000000E+00  2.00000000E+00  2.00000000E+00  2.00000000E+00
  2.00000000E+00  2.00000000E+00  2.00000000E+00  2.00000000E+00  2.00000000E+00
  2.00000000E+00  2.00000000E+00  2.00000000E+00  2.00000000E+00  2.00000000E+00
  2.00000000E+00  2.00000000E+00  2.00000000E+00  2.00000000E+00  2.00000000E+00
  2.00000000E+00  2.00000000E+00  2.00000000E+00  2.00000000E+00  2.00000000E+00
  2.00000000E+00  2.00000000E+00  2.00000000E+00  2.00000000E+00  2.00000000E+00
  2.00000000E+00  2.00000000E+00  2.00000000E+00  2.00000000E+00  2.00000000E+00
  2.00000000E+00  2.00000000E+00  2.00000000E+00  2.00000000E+00  2.00000000E+00
  2.00000000E+00  2.00000000E+00  2.00000000E+00  2.00000000E+00  2.00000000E+00
  2.00000000E+00  1.00000000E+10  2.00000000E+00  2.00000000E+00  1.00000000E+10
  2.00000000E+00  2.00000000E+00  2.00000000E+00  2.00000000E+00  2.00000000E+00
  2.00000000E+00  2.00000000E+00  2.00000000E+00  2.00000000E+00  2.00000000E+00
  2.00000000E+00  2.00000000E+00  2.00000000E+00  1.00000000E+10  2.00000000E+00
  2.00000000E+00  2.00000000E+00  2.00000000E+00  2.00000000E+00  2.00000000E+00
  1.00000000E+10  1.00000000E+10  2.00000000E+00  2.00000000E+00  2.00000000E+00
  2.00000000E+00  2.00000000E+00  2.00000000E+00  2.00000000E+00  2.00000000E+00
  2.00000000E+00  2.00000000E+00  2.00000000E+00  2.00000000E+00  2.00000000E+00
  2.00000000E+00  2.00000000E+00  2.00000000E+00  2.00000000E+00  2.00000000E+00
  2.00000000E+00  2.00000000E+00  2.00000000E+00  2.00000000E+00  2.00000000E+00
  2.00000000E+00  2.00000000E+00  2.00000000E+00  2.00000000E+00  2.00000000E+00
  2.00000000E+00  2.00000000E+00  2.00000000E+00  2.00000000E+00  2.00000000E+00
  2.00000000E+00  2.00000000E+00  2.00000000E+00  2.00000000E+00  2.00000000E+00
  2.00000000E+00  2.00000000E+00  2.00000000E+00  2.00000000E+00  2.00000000E+00
  2.00000000E+00  2.00000000E+00  2.00000000E+00  2.00000000E+00  2.00000000E+00
  2.00000000E+00  2.00000000E+00  2.00000000E+00  2.00000000E+00  2.00000000E+00
  2.00000000E+00  2.00000000E+00  2.00000000E+00  2.00000000E+00  2.00000000E+00
  2.00000000E+00  2.00000000E+00  2.00000000E+00  2.00000000E+00  2.00000000E+00
  2.00000000E+00  2.00000000E+00  2.00000000E+00  2.00000000E+00  2.00000000E+00
  2.00000000E+00  2.00000000E+00  2.00000000E+00  2.00000000E+00  2.00000000E+00
  2.00000000E+00  2.00000000E+00  2.00000000E+00  2.00000000E+00  2.00000000E+00
  2.00000000E+00  2.00000000E+00  2.00000000E+00  2.00000000E+00  2.00000000E+00
  2.00000000E+00  2.00000000E+00  2.00000000E+00  2.00000000E+00  2.00000000E+00
  2.00000000E+00  2.00000000E+00  2.00000000E+00  2.00000000E+00  2.00000000E+00
  2.00000000E+00  2.00000000E+00  2.00000000E+00  2.00000000E+00  2.00000000E+00
  2.00000000E+00  2.00000000E+00  2.00000000E+00  2.00000000E+00  2.00000000E+00
  2.00000000E+00  2.00000000E+00  2.00000000E+00  2.00000000E+00  2.00000000E+00
  2.00000000E+00  2.00000000E+00  2.00000000E+00  2.00000000E+00  2.00000000E+00
  2.00000000E+00  2.00000000E+00  2.00000000E+00  2.00000000E+00  2.00000000E+00
  2.00000000E+00  2.00000000E+00  2.00000000E+00  2.00000000E+00  2.00000000E+00
  2.00000000E+00  2.00000000E+00  2.00000000E+00  2.00000000E+00  2.00000000E+00
  2.00000000E+00  2.00000000E+00  2.00000000E+00  2.00000000E+00  2.00000000E+00
  2.00000000E+00  2.00000000E+00  2.00000000E+00  2.00000000E+00  2.00000000E+00
  2.00000000E+00  2.00000000E+00  2.00000000E+00  2.00000000E+00  2.00000000E+00
  2.00000000E+00  2.00000000E+00  2.00000000E+00  2.00000000E+00  2.00000000E+00
  2.00000000E+00  2.00000000E+00  2.00000000E+00  2.00000000E+00  2.00000000E+00
  2.00000000E+00  2.00000000E+00  2.00000000E+00  2.00000000E+00  2.00000000E+00
  2.00000000E+00  2.00000000E+00  2.00000000E+00  2.00000000E+00  2.00000000E+00
  2.00000000E+00  2.00000000E+00  2.00000000E+00  2.00000000E+00  2.00000000E+00
  2.00000000E+00  2.00000000E+00  2.00000000E+00  2.00000000E+00  2.00000000E+00
  2.00000000E+00  2.00000000E+00  2.00000000E+00  2.00000000E+00  2.00000000E+00
  2.00000000E+00  2.00000000E+00  2.00000000E+00  2.00000000E+00  2.00000000E+00
  2.00000000E+00  2.00000000E+00  2.00000000E+00  2.00000000E+00  2.00000000E+00
  2.00000000E+00  2.00000000E+00  2.00000000E+00  2.00000000E+00  2.00000000E+00
  2.00000000E+00  2.00000000E+00  2.00000000E+00  2.00000000E+00  2.00000000E+00
  2.00000000E+00  2.00000000E+00  2.00000000E+00  2.00000000E+00  2.00000000E+00
  2.00000000E+00  2.00000000E+00  2.00000000E+00  2.00000000E+00  2.00000000E+00
  2.00000000E+00  2.00000000E+00  2.00000000E+00  2.00000000E+00  2.00000000E+00
  2.00000000E+00  2.00000000E+00  2.00000000E+00  2.00000000E+00  2.00000000E+00
  2.00000000E+00  2.00000000E+00  2.00000000E+00  2.00000000E+00  2.00000000E+00
  2.00000000E+00  2.00000000E+00  2.00000000E+00  2.00000000E+00  2.00000000E+00
  2.00000000E+00  2.00000000E+00  2.00000000E+00  2.00000000E+00  2.00000000E+00
  2.00000000E+00  2.00000000E+00  2.00000000E+00  2.00000000E+00  2.00000000E+00
  2.00000000E+00  2.00000000E+00  2.00000000E+00  2.00000000E+00  2.00000000E+00
  2.00000000E+00  2.00000000E+00  2.00000000E+00  2.00000000E+00  2.00000000E+00
  2.00000000E+00  2.00000000E+00  2.00000000E+00  2.00000000E+00  2.00000000E+00
  2.00000000E+00  2.00000000E+00  2.00000000E+00  2.00000000E+00  2.00000000E+00
  2.00000000E+00  2.00000000E+00  2.00000000E+00  2.00000000E+00  2.00000000E+00
  2.00000000E+00  2.00000000E+00  2.00000000E+00  2.00000000E+00  2.00000000E+00
  2.00000000E+00  2.00000000E+00  2.00000000E+00  2.00000000E+00  2.00000000E+00
  2.00000000E+00  2.00000000E+00  2.00000000E+00  2.00000000E+00  2.00000000E+00
  2.00000000E+00  2.00000000E+00  2.00000000E+00  2.00000000E+00  2.00000000E+00
  2.00000000E+00  2.00000000E+00  2.00000000E+00  2.00000000E+00  2.00000000E+00
  2.00000000E+00
%FLAG SOLTY
%FORMAT(5E16.8)
  0.00000000E+00
%FLAG LENNARD_JONES_ACOEF
%FORMAT(5E16.8)
  9.44293233E+05  2.12601181E+03  1.39982777E-01  9.95480466E+05  2.56678134E+03
  1.04308023E+06  2.01791425E+04  9.14716912E+00  2.27401052E+04  2.01823541E+02
  8.82619071E+05  2.27577561E+03  9.24822270E+05  2.01619733E+04  8.19971662E+05
  6.06829342E+05  1.02595236E+03  6.47841731E+05  1.12780457E+04  5.74393458E+05
  3.79876399E+05  8.96776989E+04  1.07193646E+02  9.71708117E+04  1.41077189E+03
  8.61541883E+04  5.44261042E+04  7.51607703E+03  6.20665997E+04  5.94667300E+01
  6.78771368E+04  8.79040886E+02  6.01816484E+04  3.69471530E+04  4.98586848E+03
  3.25969625E+03  7.44975864E+05  1.40467023E+03  7.91544157E+05  1.45985502E+04
  7.01803794E+05  4.71003287E+05  6.82786631E+04  4.66922514E+04  5.81803229E+05
  0.00000000E+00  0.00000000E+00  0.00000000E+00  0.00000000E+00  0.00000000E+00
  0.00000000E+00  0.00000000E+00  0.00000000E+00  0.00000000E+00  0.00000000E+00
  6.58473870E+04  6.63368273E+01  7.18621074E+04  9.55000044E+02  6.37148278E+04
  3.93690817E+04  5.34045360E+03  3.50301067E+03  4.96707306E+04  0.00000000E+00
  3.76169105E+03  7.91627154E+04  8.90987508E+01  8.59947003E+04  1.21014911E+03
  7.62451550E+04  4.77908183E+04  6.55825601E+03  4.33325458E+03  6.00750218E+04
  0.00000000E+00  4.64559155E+03  5.71629601E+03  9.84684600E+05  2.53456440E+03
  1.03184851E+06  2.24743442E+04  9.14863930E+05  6.40712560E+05  9.60832554E+04
  6.71095195E+04  7.82881336E+05  0.00000000E+00  7.10513128E+04  8.50294791E+04
  1.02073671E+06  5.18220260E+05  1.06722540E+03  5.48478208E+05  1.06013455E+04
  4.86295154E+05  3.30296908E+05  4.83404799E+04  3.32551339E+04  4.06752008E+05
  0.00000000E+00  3.53289728E+04  4.26018274E+04  5.42502534E+05  2.83662575E+05
  8.11497350E+05  1.94008400E+03  8.53193737E+05  1.78601506E+04  7.56463928E+05
  5.24402060E+05  7.80065389E+04  5.42099106E+04  6.42430744E+05  0.00000000E+00
  5.74592031E+04  6.89371259E+04  8.43969952E+05  4.46121722E+05  6.96551276E+05
  5.99897901E+05  1.11043914E+03  6.37913494E+05  1.16505362E+04  5.65590822E+05
  3.78641356E+05  5.47803235E+04  3.74148715E+04  4.68011805E+05  0.00000000E+00
  3.98127143E+04  4.81820985E+04  6.30925504E+05  3.27367585E+05  5.17507491E+05
  3.76435470E+05  6.89296946E+05  1.54161417E+03  7.26877088E+05  1.46820101E+04
  6.44468276E+05  4.42689091E+05  6.53734853E+04  4.52250254E+04  5.43595012E+05
  0.00000000E+00  4.79847950E+04  5.77011015E+04  7.18991463E+05  3.78207390E+05
  5.92438683E+05  4.37717034E+05  5.03152404E+05  6.43853349E+04  5.78352684E+01
  7.06006146E+04  8.84544347E+02  6.25963552E+04  3.81142515E+04  5.10916075E+03
  3.32626784E+03  4.82692694E+04  0.00000000E+00  3.57795711E+03  4.43530964E+03
  6.97998263E+04  3.44374471E+04  5.63013422E+04  3.86646725E+04  4.69084694E+04
  3.39005767E+03  8.64679274E+04  1.00417924E+02  9.38067954E+04  1.34169202E+03
  8.31715633E+04  5.23449021E+04  7.20681791E+03  4.77162373E+03  6.57310418E+04
  0.00000000E+00  5.11317150E+03  6.28513799E+03  9.27554496E+04  4.65732396E+04
  7.52549148E+04  5.27277400E+04  6.30298721E+04  4.88692384E+03  6.90855956E+03
  2.40872585E+02  2.48828086E-03  3.07630260E+02  4.94997704E-01  2.72753051E+02
  1.02912387E+02  9.22638396E+00  4.62642987E+00  1.47660648E+02  0.00000000E+00
  5.28189878E+00  7.46295598E+00  3.03553352E+02  1.16469347E+02  2.25372434E+02
  1.15813907E+02  1.74176419E+02  4.36660257E+00  8.53132435E+00  1.10360882E-05
%FLAG LENNARD_JONES_BCOEF
%FORMAT(5E16.8)
  8.01323529E+02  2.09604198E+01  9.37598976E-02  7.36907417E+02  2.06278363E+01
  6.75612247E+02  6.45756063E+01  7.57919667E-01  6.13981767E+01  3.56012899E+00
  6.53361429E+02  1.82891803E+01  5.99015525E+02  5.44372326E+01  5.31102864E+02
  6.77220874E+02  1.53505284E+01  6.26720080E+02  5.08951803E+01  5.55666448E+02
  5.64885984E+02  1.36131731E+02  2.59456373E+00  1.26919150E+02  9.41257003E+00
  1.12529845E+02  1.11805549E+02  2.17257828E+01  1.13252061E+02  1.93248820E+00
  1.06076943E+02  7.42992380E+00  9.40505980E+01  9.21192136E+01  1.76949863E+01
  1.43076527E+01  7.50714425E+02  1.79702257E+01  6.93079947E+02  5.79323581E+01
  6.14502845E+02  6.29300710E+02  1.25287818E+02  1.03606917E+02  6.99746810E+02
  0.00000000E+00  0.00000000E+00  0.00000000E+00  0.00000000E+00  0.00000000E+00
  0.00000000E+00  0.00000000E+00  0.00000000E+00  0.00000000E+00  0.00000000E+00
  1.15327881E+02  2.01792524E+00  1.07908863E+02  7.65648470E+00  9.56748258E+01
  9.40124296E+01  1.81057616E+01  1.46638650E+01  1.05648788E+02  0.00000000E+00
  1.50233639E+01  1.26451907E+02  2.33864085E+00  1.18043746E+02  8.61880722E+00
  1.04660679E+02  1.03580945E+02  2.00642027E+01  1.63092814E+01  1.16187983E+02
  0.00000000E+00  1.66953734E+01  1.85196588E+01  7.30206155E+02  2.04226110E+01
  6.69494459E+02  6.08139360E+01  5.93591333E+02  6.20970728E+02  1.25742895E+02
  1.05087646E+02  6.86742760E+02  0.00000000E+00  1.06903901E+02  1.16947855E+02
  6.63431737E+02  4.79881022E+02  1.20051375E+01  4.42179058E+02  3.78372494E+01
  3.92047541E+02  4.03897559E+02  8.07968711E+01  6.70144433E+01  4.48425641E+02
  0.00000000E+00  6.82892701E+01  7.49896074E+01  4.38146883E+02  2.87011518E+02
  6.48597119E+02  1.74825352E+01  5.95658566E+02  5.30440533E+01  5.28126496E+02
  5.49675335E+02  1.10856114E+02  9.24130897E+01  6.08686716E+02  0.00000000E+00
  9.40636541E+01  1.03031170E+02  5.90251928E+02  3.88758656E+02  5.24668528E+02
  6.15165511E+02  1.45902714E+01  5.68167388E+02  4.72594809E+01  5.03752097E+02
  5.15240418E+02  1.02477444E+02  8.46911674E+01  5.73100668E+02  0.00000000E+00
  8.63723599E+01  9.50181887E+01  5.62969425E+02  3.67361018E+02  4.98871431E+02
  4.69350655E+02  5.88797748E+02  1.53501807E+01  5.41546250E+02  4.73716383E+01
  4.80149098E+02  4.97456336E+02  9.99600502E+01  8.31409640E+01  5.51505564E+02
  0.00000000E+00  8.46691831E+01  9.28465134E+01  5.36620538E+02  3.52573684E+02
  4.76608379E+02  4.51916854E+02  4.32634597E+02  1.23751804E+02  2.04464126E+00
  1.16065835E+02  7.99614292E+00  1.02907011E+02  1.00379343E+02  1.92174397E+01
  1.55059847E+01  1.13016701E+02  0.00000000E+00  1.58996004E+01  1.77023375E+01
  1.14981426E+02  7.31636661E+01  1.01040256E+02  9.23664132E+01  9.08431526E+01
  1.67944276E+01  1.34516705E+02  2.52706841E+00  1.25489661E+02  9.23714573E+00
  1.11262422E+02  1.10338858E+02  2.14083478E+01  1.74198525E+01  1.23703833E+02
  0.00000000E+00  1.78280753E+01  1.97659043E+01  1.24325688E+02  7.98066064E+01
  1.09570372E+02  1.01173582E+02  9.87712192E+01  1.89134207E+01  2.10929191E+01
  5.21867651E+00  9.24653616E-03  5.28230309E+00  1.30416027E-01  4.68342836E+00
  3.59619399E+00  5.63047631E-01  3.98705627E-01  4.30971229E+00  0.00000000E+00
  4.21184434E-01  5.00648264E-01  5.22789272E+00  2.93355636E+00  4.40751799E+00
  3.48534600E+00  3.81654050E+00  4.15568027E-01  5.44840215E-01  4.55498033E-04
%FLAG BONDS_INC_HYDROGEN
%FORMAT(10I8)
      12      15       4      24      27       4      24      30       4       3
       0       7       6       0       7       9       0       7      48      51
       4      48      54       4      45      42       7      69      72       4
      69      75       4      66      63       7      90      93       4     102
     105       4     102     108       4     111     114       4     111     117
       4      87      84       7     135     138       4     135     141       4
     132     129       7     156     159       4     156     162       4     153
     150       7     177     180       4     189     192       4     216     219
       4     216     222       4     216     225       4     195     198       4
     195     201       4     204     207       4     204     210       4     204
     213       4     174     171       7     234     237       4     234     240
       4     231     228       7     255     258       4     255     261       4
     252     249       7     276     279       4     276     282       4     273
     270       7     297     300       4     309     312       4     309     315
       4     294     291       7     321     318      11     330     333       4
     330     336       4     327     324       7     351     354       4     351
     357       4     348     345       7     372     375       4     384     387
       4     384     390       4     396     399      14     414     417      14
     432     435      14     420     423      14     426     429      14     369
     366       7     408     405       7     444     447       4     444     450
       4     441     438       7     465     468       4     477     480       4
     477     483       4     462     459       7     501     504       4     501
     507       4     498     495       7     522     525       4     534     537
       4     534     540       4     546     549      14     552     555      14
     558     561      14     564     567      14     570     573      14     519
     516       7     582     585       4     582     588       4     579     576
       7     603     606       4     603     609       4     600     597       7
     624     627       4     624     630       4     621     618       7     645
     648       4     657     660       4     657     663       4     672     675
       4     672     678       4     672     681       4     684     687       4
     684     690       4     684     693       4     666     669       4     642
     639       7     702     705       4     702     708       4     699     696
       7     723     726       4     723     729       4     720     717       7
     744     747       4     756     759       4     756     762       4     768
     771      14     774     777      14     780     783      14     786     789
      14     741     738       7     798     795      11     807     810       4
     807     813       4     804     801       7     828     831       4     840
     843       4     840     846       4     825     822       7     852     849
      11     858     909      30     858     912      30     858     915      30
     867     918      31     870     921      31     885     924      31     888
     927      31     891     930      31     894     933      31     897     936
      31     903     939      32     906     942      31
%FLAG BONDS_WITHOUT_HYDROGEN
%FORMAT(10I8)
      18      12       1      18      21       2      12      24       3      12
       0       5      24      33       1      33      36       6      33      39
       6      18      42       8      57      48       1      57      60       2
      48      42       9      57      63       8      78      69       1      78
      81       2      69      63       9      78      84       8      96      90
       1      96      99       2      90     102       3      90      84       9
     102     111       3     120     111       1     120     123       6     120
     126       6      96     129       8     144     135       1     144     147
       2     135     129       9     144     150       8     165     156       1
     165     168       2     156     150       9     165     171       8     183
     177       1     183     186       2     177     189       3     177     171
       9     189     195       3     189     204       3     216     195       3
     183     228       8     243     234       1     243     246       2     234
     228       9     243     249       8     264     255       1     264     267
       2     255     249       9     264     270       8     285     276       1
     285     288       2     276     270       9     285     291       8     303
     297       1     303     306       2     297     309       3     297     291
       9     309     318      10     303     324       8     339     330       1
     339     342       2     330     324       9     339     345       8     360
     351       1     360     363       2     351     345       9     360     366
       8     378     372       1     378     381       2     372     384       3
     372     366       9     384     393      12     396     393      13     396
     405      15     402     411      16     402     414      17     402     393
      18     411     420      19     411     405      20     414     426      19
     432     420      19     432     426      19     378     438       8     453
     444       1     453     456       2     444     438       9     453     459
       8     471     465       1     471     474       2     465     477       3
     465     459       9     477     486       1     486     489       6     486
     492       6     471     495       8     510     501       1     510     513
       2     501     495       9     510     516       8     528     522       1
     528     531       2     522     534       3     522     516       9     534
     543      21     546     558      19     546     543      19     552     564
      19     552     543      19     558     570      19     564     570      19
     528     576       8     591     582       1     591     594       2     582
     576       9     591     597       8     612     603       1     612     615
       2     603     597       9     612     618       8     633     624       1
     633     636       2     624     618       9     633     639       8     651
     645       1     651     654       2     645     657       3     645     639
       9     657     666       3     672     666       3     684     666       3
     651     696       8     711     702       1     711     714       2     702
     696       9     711     717       8     732     723       1     732     735
       2     723     717       9     732     738       8     750     744       1
     750     753       2     744     756       3     744     738       9     756
     765      21     768     780      19     768     765      19     774     786
      19     774     765      19     780     792      22     786     792      22
     792     795      23     750     801       8     816     807       1     816
     819       2     807     801       9     816     822       8     834     828
       1     834     837       6     834     855       6     828     840       3
     828     822       9     840     849      10     861     858      24     864
     861      25     867     864      26     870     867      26     873     870
      26     876     873      27     879     876      28     882     876      27
     885     882      26     888     885      26     891     888      26     894
     891      26     897     894      26     897     882      26     900     873
      26     903     900      29     906     900      26     906     864      26
%FLAG ANGLES_INC_HYDROGEN
%FORMAT(10I8)
       0      12      15       1       3       0       6       3       3       0
       9       3       3       0      12       1       6       0       9       3
       6       0      12       1       9       0      12       1      12      24
      27       1      12      24      30       1      15      12      18       1
      15      12      24       1      18      42      45       7      27      24
      30       3      27      24      33       1      30      24      33       1
      42      48      51       1      42      48      54       1      45      42
      48      13      51      48      54       3      51      48      57       1
      54      48      57       1      57      63      66       7      63      69
      72       1      63      69      75       1      66      63      69      13
      72      69      75       3      72      69      78       1      75      69
      78       1      78      84      87       7      84      90      93       1
      87      84      90      13      90     102     105       1      90     102
     108       1      93      90      96       1      93      90     102       1
      96     129     132       7     102     111     114       1     102     111
     117       1     105     102     108       3     105     102     111       1
     108     102     111       1     114     111     117       3     114     111
     120       1     117     111     120       1     129     135     138       1
     129     135     141       1     132     129     135      13     138     135
     141       3     138     135     144       1     141     135     144       1
     144     150     153       7     150     156     159       1     150     156
     162       1     153     150     156      13     159     156     162       3
     159     156     165       1     162     156     165       1     165     171
     174       7     171     177     180       1     174     171     177      13
     177     189     192       1     180     177     183       1     180     177
     189       1     183     228     231       7     189     195     198       1
     189     195     201       1     189     204     207       1     189     204
     210       1     189     204     213       1     192     189     195       1
     192     189     204       1     195     216     219       1     195     216
     222       1     195     216     225       1     198     195     201       3
     198     195     216       1     201     195     216       1     207     204
     210       3     207     204     213       3     210     204     213       3
     219     216     222       3     219     216     225       3     222     216
     225       3     228     234     237       1     228     234     240       1
     231     228     234      13     237     234     240       3     237     234
     243       1     240     234     243       1     243     249     252       7
     249     255     258       1     249     255     261       1     252     249
     255      13     258     255     261       3     258     255     264       1
     261     255     264       1     264     270     273       7     270     276
     279       1     270     276     282       1     273     270     276      13
     279     276     282       3     279     276     285       1     282     276
     285       1     285     291     294       7     291     297     300       1
     294     291     297      13     297     309     312       1     297     309
     315       1     300     297     303       1     300     297     309       1
     303     324     327       7     309     318     321      16     312     309
     315       3     312     309     318       1     315     309     318       1
     324     330     333       1     324     330     336       1     327     324
     330      13     333     330     336       3     333     330     339       1
     336     330     339       1     339     345     348       7     345     351
     354       1     345     351     357       1     348     345     351      13
     354     351     357       3     354     351     360       1     357     351
     360       1     360     366     369       7     366     372     375       1
     369     366     372      13     372     384     387       1     372     384
     390       1     375     372     378       1     375     372     384       1
     378     438     441       7     387     384     390       3     387     384
     393       1     390     384     393       1     393     396     399       7
     396     405     408       7     399     396     405       7     402     414
     417       7     408     405     411      29     411     420     423       7
     414     426     429       7     417     414     426       7     420     432
     435       7     423     420     432       7     426     432     435       7
     429     426     432       7     438     444     447       1     438     444
     450       1     441     438     444      13     447     444     450       3
     447     444     453       1     450     444     453       1     453     459
     462       7     459     465     468       1     462     459     465      13
     465     477     480       1     465     477     483       1     468     465
     471       1     468     465     477       1     471     495     498       7
     480     477     483       3     480     477     486       1     483     477
     486       1     495     501     504       1     495     501     507       1
     498     495     501      13     504     501     507       3     504     501
     510       1     507     501     510       1     510     516     519       7
     516     522     525       1     519     516     522      13     522     534
     537       1     522     534     540       1     525     522     528       1
     525     522     534       1     528     576     579       7     537     534
     540       3     537     534     543       1     540     534     543       1
     543     546     549       7     543     552     555       7     546     558
     561       7     549     546     558       7     552     564     567       7
     555     552     564       7     558     570     573       7     561     558
     570       7     564     570     573       7     567     564     570       7
     576     582     585       1     576     582     588       1     579     576
     582      13     585     582     588       3     585     582     591       1
     588     582     591       1     591     597     600       7     597     603
     606       1     597     603     609       1     600     597     603      13
     606     603     609       3     606     603     612       1     609     603
     612       1     612     618     621       7     618     624     627       1
     618     624     630       1     621     618     624      13     627     624
     630       3     627     624     633       1     630     624     633       1
     633     639     642       7     639     645     648       1     642     639
     645      13     645     657     660       1     645     657     663       1
     648     645     651       1     648     645     657       1     651     696
     699       7     657     666     669       1     660     657     663       3
     660     657     666       1     663     657     666       1     666     672
     675       1     666     672     678       1     666     672     681       1
     666     684     687       1     666     684     690       1     666     684
     693       1     669     666     672       1     669     666     684       1
     675     672     678       3     675     672     681       3     678     672
     681       3     687     684     690       3     687     684     693       3
     690     684     693       3     696     702     705       1     696     702
     708       1     699     696     702      13     705     702     708       3
     705     702     711       1     708     702     711       1     711     717
     720       7     717     723     726       1     717     723     729       1
     720     717     723      13     726     723     729       3     726     723
     732       1     729     723     732       1     732     738     741       7
     738     744     747       1     741     738     744      13     744     756
     759       1     744     756     762       1     747     744     750       1
     747     744     756       1     750     801     804       7     759     756
     762       3     759     756     765       1     762     756     765       1
     765     768     771       7     765     774     777       7     768     780
     783       7     771     768     780       7     774     786     789       7
     777     774     786       7     783     780     792       7     789     786
     792       7     792     795     798      33     801     807     810       1
     801     807     813       1     804     801     807      13     810     807
     813       3     810     807     816       1     813     807     816       1
     816     822     825       7     822     828     831       1     825     822
     828      13     828     840     843       1     828     840     846       1
     831     828     834       1     831     828     840       1     840     849
     852      16     843     840     846       3     843     840     849       1
     846     840     849       1     861     858     909      35     861     858
     912      35     861     858     915      35     864     867     918      38
     864     906     942      38     867     870     921      38     870     867
     918      38     873     870     921      38     882     885     924      38
     882     897     936      38     885     888     927      38     888     885
     924      38     888     891     930      38     891     888     927      38
     891     894     933      38     894     891     930      38     894     897
     936      38     897     894     933      38     900     903     939      43
     900     906     942      38     909     858     912      44     909     858
     915      44     912     858     915      44
%FLAG ANGLES_WITHOUT_HYDROGEN
%FORMAT(10I8)
       0      12      18       2       0      12      24       2      12      18
      21       4      12      18      42       5      12      24      33       6
      18      12      24       6      18      42      48       8      21      18
      42       9      24      33      36      10      24      33      39      10
      36      33      39      11      42      48      57      12      48      57
      60       4      48      57      63       5      57      63      69       8
      60      57      63       9      63      69      78      12      69      78
      81       4      69      78      84       5      78      84      90       8
      81      78      84       9      84      90      96      12      84      90
     102      14      90      96      99       4      90      96     129       5
      90     102     111      15      96      90     102       6      96     129
     135       8      99      96     129       9     102     111     120       6
     111     120     123      10     111     120     126      10     123     120
     126      11     129     135     144      12     135     144     147       4
     135     144     150       5     144     150     156       8     147     144
     150       9     150     156     165      12     156     165     168       4
     156     165     171       5     165     171     177       8     168     165
     171       9     171     177     183      12     171     177     189      14
     177     183     186       4     177     183     228       5     177     189
     195      15     177     189     204      15     183     177     189       6
     183     228     234       8     186     183     228       9     189     195
     216      15     195     189     204      15     228     234     243      12
     234     243     246       4     234     243     249       5     243     249
     255       8     246     243     249       9     249     255     264      12
     255     264     267       4     255     264     270       5     264     270
     276       8     267     264     270       9     270     276     285      12
     276     285     288       4     276     285     291       5     285     291
     297       8     288     285     291       9     291     297     303      12
     291     297     309      14     297     303     306       4     297     303
     324       5     297     309     318       1     303     297     309       6
     303     324     330       8     306     303     324       9     324     330
     339      12     330     339     342       4     330     339     345       5
     339     345     351       8     342     339     345       9     345     351
     360      12     351     360     363       4     351     360     366       5
     360     366     372       8     363     360     366       9     366     372
     378      12     366     372     384      14     372     378     381       4
     372     378     438       5     372     384     393      17     378     372
     384       6     378     438     444       8     381     378     438       9
     384     393     396      18     384     393     402      19     393     396
     405      20     393     402     411      21     393     402     414      22
     396     393     402      23     396     405     411      24     402     411
     405      25     402     411     420      26     402     414     426      27
     405     411     420      28     411     402     414      30     411     420
     432      27     414     426     432      27     420     432     426      27
     438     444     453      12     444     453     456       4     444     453
     459       5     453     459     465       8     456     453     459       9
     459     465     471      12     459     465     477      14     465     471
     474       4     465     471     495       5     465     477     486       6
     471     465     477       6     471     495     501       8     474     471
     495       9     477     486     489      10     477     486     492      10
     489     486     492      11     495     501     510      12     501     510
     513       4     501     510     516       5     510     516     522       8
     513     510     516       9     516     522     528      12     516     522
     534      14     522     528     531       4     522     528     576       5
     522     534     543      31     528     522     534       6     528     576
     582       8     531     528     576       9     534     543     546      32
     534     543     552      32     543     546     558      27     543     552
     564      27     546     543     552      27     546     558     570      27
     552     564     570      27     558     570     564      27     576     582
     591      12     582     591     594       4     582     591     597       5
     591     597     603       8     594     591     597       9     597     603
     612      12     603     612     615       4     603     612     618       5
     612     618     624       8     615     612     618       9     618     624
     633      12     624     633     636       4     624     633     639       5
     633     639     645       8     636     633     639       9     639     645
     651      12     639     645     657      14     645     651     654       4
     645     651     696       5     645     657     666      15     651     645
     657       6     651     696     702       8     654     651     696       9
     657     666     672      15     657     666     684      15     672     666
     684      15     696     702     711      12     702     711     714       4
     702     711     717       5     711     717     723       8     714     711
     717       9     717     723     732      12     723     732     735       4
     723     732     738       5     732     738     744       8     735     732
     738       9     738     744     750      12     738     744     756      14
     744     750     753       4     744     750     801       5     744     756
     765      31     750     744     756       6     750     801     807       8
     753     750     801       9     756     765     768      32     756     765
     774      32     765     768     780      27     765     774     786      27
     768     765     774      27     768     780     792      27     774     786
     792      27     780     792     786      27     780     792     795      32
     786     792     795      32     801     807     816      12     807     816
     819       4     807     816     822       5     816     822     828       8
     819     816     822       9     822     828     834      12     822     828
     840      14     828     834     837      10     828     834     855      10
     828     840     849       1     834     828     840       6     837     834
     855      11     858     861     864      34     861     864     867      36
     861     864     906      36     864     867     870      37     864     906
     900      37     867     864     906      37     867     870     873      37
     870     873     876      39     870     873     900      37     873     876
     879      40     873     876     882      41     873     900     903      42
     873     900     906      37     876     873     900      39     876     882
     885      39     876     882     897      39     879     876     882      40
     882     885     888      37     882     897     894      37     885     882
     897      37     885     888     891      37     888     891     894      37
     891     894     897      37     903     900     906      42
%FLAG DIHEDRALS_INC_HYDROGEN
%FORMAT(10I8)
       0      12      24      27      78       0      12      24      30      79
       3       0      12      15      81       3       0      12      18      82
       3       0      12      24      83       6       0      12      15      84
       6       0      12      18      85       6       0      12      24      86
       9       0      12      15      87       9       0      12      18      88
       9       0      12      24      89      12      18      42      45      90
      15      12      24      27      94      15      12      24      30      95
      15      12      24      33      96      18      12      24      27      97
      18      12      24      30      98      21      18      42      45     101
      21      18     -42      45       8      48      57      63      66     105
      51      48      57      60     107      51      48     -57      60      13
      54      48      57      60     108      54      48     -57      60      13
      60      57      63      66     110      60      57     -63      66       8
      69      78      84      87     113      72      69      78      81     115
      72      69     -78      81      13      75      69      78      81     116
      75      69     -78      81      13      81      78      84      87     119
      81      78     -84      87       8      84      90     102     105     122
      84      90     102     108     123      90      96     129     132     125
      90     102     111     114     127      90     102     111     117     128
      93      90      96      99     130      93      90     -96      99      13
      93      90     102     105     131      93      90     102     108     132
      93      90     102     111     133      96      90     102     105     134
      96      90     102     108     135      99      96     129     132     138
      99      96    -129     132       8     105     102     111     114     143
     105     102     111     117     144     105     102     111     120     145
     108     102     111     114     146     108     102     111     117     147
     108     102     111     120     148     135     144     150     153     150
     138     135     144     147     152     138     135    -144     147      13
     141     135     144     147     153     141     135    -144     147      13
     147     144     150     153     155     147     144    -150     153       8
     156     165     171     174     158     159     156     165     168     160
     159     156    -165     168      13     162     156     165     168     161
     162     156    -165     168      13     168     165     171     174     164
     168     165    -171     174       8     171     177     189     192     167
     177     183     228     231     170     177     189     195     198     172
     177     189     195     201     173     177     189     204     207     175
     177     189     204     210     176     177     189     204     213     177
     180     177     183     186     178     180     177    -183     186      13
     180     177     189     192     179     180     177     189     195     180
     180     177     189     204     181     183     177     189     192     182
     186     183     228     231     186     186     183    -228     231       8
     189     195     216     219     189     189     195     216     222     190
     189     195     216     225     191     192     189     195     198     192
     192     189     195     201     193     192     189     195     216     194
     192     189     204     207     195     192     189     204     210     196
     192     189     204     213     197     195     189     204     207     198
     195     189     204     210     199     195     189     204     213     200
     198     195     189     204     201     198     195     216     219     202
     198     195     216     222     203     198     195     216     225     204
     201     195     189     204     205     201     195     216     219     206
     201     195     216     222     207     201     195     216     225     208
     234     243     249     252     211     237     234     243     246     213
     237     234    -243     246      13     240     234     243     246     214
     240     234    -243     246      13     246     243     249     252     216
     246     243    -249     252       8     255     264     270     273     219
     258     255     264     267     221     258     255    -264     267      13
     261     255     264     267     222     261     255    -264     267      13
     267     264     270     273     224     267     264    -270     273       8
     276     285     291     294     227     279     276     285     288     229
     279     276    -285     288      13     282     276     285     288     230
     282     276    -285     288      13     288     285     291     294     233
     288     285    -291     294       8     291     297     309     312     236
     291     297     309     315     237     297     303     324     327     239
     297     309     318     321     241     297     309    -318     321      42
     297     309    -318     321      43     297     309    -318     321      44
     300     297     303     306     242     300     297    -303     306      13
     300     297     309     312     243     300     297     309     315     244
     300     297     309     318     245     303     297     309     312     246
     303     297     309     315     247     306     303     324     327     250
     306     303    -324     327       8     312     309     318     321     253
     315     309     318     321     254     330     339     345     348     256
     333     330     339     342     258     333     330    -339     342      13
     336     330     339     342     259     336     330    -339     342      13
     342     339     345     348     261     342     339    -345     348       8
     351     360     366     369     264     354     351     360     363     266
     354     351    -360     363      13     357     351     360     363     267
     357     351    -360     363      13     363     360     366     369     270
     363     360    -366     369       8     366     372     384     387     273
     366     372     384     390     274     372     378     438     441     276
     375     372     378     381     279     375     372    -378     381      13
     375     372     384     387     280     375     372     384     390     281
     375     372     384     393     282     378     372     384     387     283
     378     372     384     390     284     381     378     438     441     287
     381     378    -438     441       8     384     393     396     399     290
     393     396     405     408     294     393     402     414     417     296
     399     396     393     402     300     399     396     405     408     301
     399     396     405     411     302     402     411     405     408     303
     402     411     420     423     304     402     414     426     429     306
     405     411     420     423     308     408     405     411     420     310
     411     402     414     417     311     411     420     432     435     313
     414     426     432     435     315     417     414     426     429     316
     417     414     426     432     317     420     432     426     429     318
     423     420     432     426     319     423     420     432     435     320
     429     426     432     435     321     444     453     459     462     323
     447     444     453     456     325     447     444    -453     456      13
     450     444     453     456     326     450     444    -453     456      13
     456     453     459     462     329     456     453    -459     462       8
     459     465     477     480     332     459     465     477     483     333
     465     471     495     498     335     468     465     471     474     339
     468     465    -471     474      13     468     465     477     480     340
     468     465     477     483     341     468     465     477     486     342
     471     465     477     480     343     471     465     477     483     344
     474     471     495     498     347     474     471    -495     498       8
     501     510     516     519     351     504     501     510     513     353
     504     501    -510     513      13     507     501     510     513     354
     507     501    -510     513      13     513     510     516     519     357
     513     510    -516     519       8     516     522     534     537     360
     516     522     534     540     361     522     528     576     579     363
     525     522     528     531     367     525     522    -528     531      13
     525     522     534     537     368     525     522     534     540     369
     525     522     534     543     370     528     522     534     537     371
     528     522     534     540     372     531     528     576     579     375
     531     528    -576     579       8     534     543     546     549     378
     534     543     552     555     380     543     546     558     561     382
     543     552     564     567     384     546     543     552     555     385
     546     558     570     573     387     549     546     543     552     388
     549     546     558     561     389     549     546     558     570     390
     552     564     570     573     392     555     552     564     567     393
     555     552     564     570     394     558     570     564     567     395
     561     558     570     564     396     561     558     570     573     397
     567     564     570     573     398     582     591     597     600     400
     585     582     591     594     402     585     582    -591     594      13
     588     582     591     594     403     588     582    -591     594      13
     594     591     597     600     405     594     591    -597     600       8
     603     612     618     621     408     606     603     612     615     410
     606     603    -612     615      13     609     603     612     615     411
     609     603    -612     615      13     615     612     618     621     413
     615     612    -618     621       8     624     633     639     642     416
     627     624     633     636     418     627     624    -633     636      13
     630     624     633     636     419     630     624    -633     636      13
     636     633     639     642     422     636     633    -639     642       8
     639     645     657     660     425     639     645     657     663     426
     645     651     696     699     428     645     657     666     669     430
     648     645     651     654     433     648     645    -651     654      13
     648     645     657     660     434     648     645     657     663     435
     648     645     657     666     436     651     645     657     660     437
     651     645     657     663     438     654     651     696     699     441
     654     651    -696     699       8     657     666     672     675     444
     657     666     672     678     445     657     666     672     681     446
     657     666     684     687     447     657     666     684     690     448
     657     666     684     693     449     660     657     666     669     450
     660     657     666     672     451     660     657     666     684     452
     663     657     666     669     453     663     657     666     672     454
     663     657     666     684     455     669     666     672     675     456
     669     666     672     678     457     669     666     672     681     458
     669     666     684     687     459     669     666     684     690     460
     669     666     684     693     461     672     666     684     687     462
     672     666     684     690     463     672     666     684     693     464
     675     672     666     684     465     678     672     666     684     466
     681     672     666     684     467     702     711     717     720     469
     705     702     711     714     471     705     702    -711     714      13
     708     702     711     714     472     708     702    -711     714      13
     714     711     717     720     474     714     711    -717     720       8
     723     732     738     741     477     726     723     732     735     479
     726     723    -732     735      13     729     723     732     735     480
     729     723    -732     735      13     735     732     738     741     483
     735     732    -738     741       8     738     744     756     759     486
     738     744     756     762     487     744     750     801     804     489
     747     744     750     753     493     747     744    -750     753      13
     747     744     756     759     494     747     744     756     762     495
     747     744     756     765     496     750     744     756     759     497
     750     744     756     762     498     753     750     801     804     501
     753     750    -801     804       8     756     765     768     771     504
     756     765     774     777     506     765     768     780     783     508
     765     774     786     789     510     768     765     774     777     511
     771     768     765     774     514     771     768     780     783     515
     771     768     780     792     516     777     774     786     789     519
     777     774     786     792     520     780     792     786     789     521
     780     792     795     798     522     780     792    -795     798      74
     783     780     792     786     523     783     780     792     795     524
     786     792     795     798     525     786     792    -795     798      74
     789     786     792     795     526     807     816     822     825     528
     810     807     816     819     530     810     807    -816     819      13
     813     807     816     819     531     813     807    -816     819      13
     819     816     822     825     534     819     816    -822     825       8
     822     828     840     843     536     822     828     840     846     537
     828     840     849     852     539     828     840    -849     852      42
     828     840    -849     852      43     828     840    -849     852      44
     831     828     840     843     540     831     828     840     846     541
     831     828     840     849     542     834     828     840     843     543
     834     828     840     846     544     843     840     849     852     546
     846     840     849     852     547     861     864     867     918     551
     861     864     906     942     553     864     861     858     909     554
     864     861     858     912     555     864     861     858     915     556
     864     867     870     921     558     867     864     906     942     561
     873     870     867     918     567     873     900     903     939     570
     873     900     906     942     571     876     873     870     921     572
     876     882     885     924     576     876     882     897     936     578
     882     885     888     927     584     882     897     894     933     585
     885     882     897     936     587     885     888     891     930     588
     888     891     894     933     590     891     888     885     924     591
     891     894     897     936     592     894     891     888     927     593
     897     882     885     924     594     897     894     891     930     595
     900     873     870     921     596     903     900     906     942     597
     906     864     867     918     598     906     900     903     939     599
     918     867     870     921     600     924     885     888     927     601
     927     888     891     930     602     930     891     894     933     603
     933     894     897     936     604      18      48     -42     -45      77
      57      69     -63     -66      77      78      90     -84     -87      77
      96     135    -129    -132      77     144     156    -150    -153      77
     165     177    -171    -174      77     183     234    -228    -231      77
     243     255    -249    -252      77     264     276    -270    -273      77
     285     297    -291    -294      77     303     330    -324    -327      77
     339     351    -345    -348      77     360     372    -366    -369      77
     393     405    -396    -399      77     396     411    -405    -408      75
     426     402    -414    -417      77     411     432    -420    -423      77
     432     414    -426    -429      77     420     426    -432    -435      77
     378     444    -438    -441      77     453     465    -459    -462      77
     471     501    -495    -498      77     510     522    -516    -519      77
     558     543    -546    -549      77     564     543    -552    -555      77
     570     546    -558    -561      77     570     552    -564    -567      77
     558     564    -570    -573      77     528     582    -576    -579      77
     591     603    -597    -600      77     612     624    -618    -621      77
     633     645    -639    -642      77     651     702    -696    -699      77
     711     723    -717    -720      77     732     744    -738    -741      77
     780     765    -768    -771      77     786     765    -774    -777      77
     768     792    -780    -783      77     774     792    -786    -789      77
     750     807    -801    -804      77     816     828    -822    -825      77
     864     870    -867    -918      77     867     873    -870    -921      77
     882     888    -885    -924      77     885     891    -888    -927      77
     888     894    -891    -930      77     891     897    -894    -933      77
     882     894    -897    -936      77     864     900    -906    -942      77
      15      12      18      21     607      15      12      18      42     608
      18      42      48      51     609      18      42      48      54     610
      27      24      33      36     612      27      24      33      39     613
      30      24      33      36     614      30      24      33      39     615
      45      42      48      51     617      45      42      48      54     618
      45      42      48      57     619      51      48      57      63     620
      54      48      57      63     621      57      63      69      72     622
      57      63      69      75     623      66      63      69      72     625
      66      63      69      75     626      66      63      69      78     627
      72      69      78      84     628      75      69      78      84     629
      78      84      90      93     630      87      84      90      93     632
      87      84      90      96     633      87      84      90     102     634
      93      90      96     129     635      96     129     135     138     636
      96     129     135     141     637     114     111     120     123     639
     114     111     120     126     640     117     111     120     123     641
     117     111     120     126     642     132     129     135     138     644
     132     129     135     141     645     132     129     135     144     646
     138     135     144     150     647     141     135     144     150     648
     144     150     156     159     649     144     150     156     162     650
     153     150     156     159     652     153     150     156     162     653
     153     150     156     165     654     159     156     165     171     655
     162     156     165     171     656     165     171     177     180     657
     174     171     177     180     659     174     171     177     183     660
     174     171     177     189     661     180     177     183     228     662
     183     228     234     237     663     183     228     234     240     664
     231     228     234     237     667     231     228     234     240     668
     231     228     234     243     669     237     234     243     249     670
     240     234     243     249     671     243     249     255     258     672
     243     249     255     261     673     252     249     255     258     675
     252     249     255     261     676     252     249     255     264     677
     258     255     264     270     678     261     255     264     270     679
     264     270     276     279     680     264     270     276     282     681
     273     270     276     279     683     273     270     276     282     684
     273     270     276     285     685     279     276     285     291     686
     282     276     285     291     687     285     291     297     300     688
     294     291     297     300     690     294     291     297     303     691
     294     291     297     309     692     300     297     303     324     693
     303     324     330     333     694     303     324     330     336     695
     327     324     330     333     698     327     324     330     336     699
     327     324     330     339     700     333     330     339     345     701
     336     330     339     345     702     339     345     351     354     703
     339     345     351     357     704     348     345     351     354     706
     348     345     351     357     707     348     345     351     360     708
     354     351     360     366     709     357     351     360     366     710
     360     366     372     375     711     369     366     372     375     713
     369     366     372     378     714     369     366     372     384     715
     375     372     378     438     717     378     438     444     447     718
     378     438     444     450     719     387     384     393     396     721
     387     384     393     402     722     390     384     393     396     723
     390     384     393     402     724     441     438     444     447     726
     441     438     444     450     727     441     438     444     453     728
     447     444     453     459     729     450     444     453     459     730
     453     459     465     468     731     462     459     465     468     733
     462     459     465     471     734     462     459     465     477     735
     468     465     471     495     736     471     495     501     504     737
     471     495     501     507     738     480     477     486     489     740
     480     477     486     492     741     483     477     486     489     742
     483     477     486     492     743     498     495     501     504     745
     498     495     501     507     746     498     495     501     510     747
     504     501     510     516     748     507     501     510     516     749
     510     516     522     525     750     519     516     522     525     752
     519     516     522     528     753     519     516     522     534     754
     525     522     528     576     755     528     576     582     585     756
     528     576     582     588     757     537     534     543     546     759
     537     534     543     552     760     540     534     543     546     761
     540     534     543     552     762     579     576     582     585     764
     579     576     582     588     765     579     576     582     591     766
     585     582     591     597     767     588     582     591     597     768
     591     597     603     606     769     591     597     603     609     770
     600     597     603     606     772     600     597     603     609     773
     600     597     603     612     774     606     603     612     618     775
     609     603     612     618     776     612     618     624     627     777
     612     618     624     630     778     621     618     624     627     780
     621     618     624     630     781     621     618     624     633     782
     627     624     633     639     783     630     624     633     639     784
     633     639     645     648     785     642     639     645     648     787
     642     639     645     651     788     642     639     645     657     789
     648     645     651     696     790     651     696     702     705     791
     651     696     702     708     792     699     696     702     705     795
     699     696     702     708     796     699     696     702     711     797
     705     702     711     717     798     708     702     711     717     799
     711     717     723     726     800     711     717     723     729     801
     720     717     723     726     803     720     717     723     729     804
     720     717     723     732     805     726     723     732     738     806
     729     723     732     738     807     732     738     744     747     808
     741     738     744     747     810     741     738     744     750     811
     741     738     744     756     812     747     744     750     801     813
     750     801     807     810     814     750     801     807     813     815
     759     756     765     768     817     759     756     765     774     818
     762     756     765     768     819     762     756     765     774     820
     804     801     807     810     822     804     801     807     813     823
     804     801     807     816     824     810     807     816     822     825
     813     807     816     822     826     816     822     828     831     827
     825     822     828     831     830     825     822     828     834     831
     825     822     828     840     832     831     828     834     837     833
     831     828     834     855     834
%FLAG DIHEDRALS_WITHOUT_HYDROGEN
%FORMAT(10I8)
       0      12      24      33      80       0      12     -24      33       1
       0      12     -24      33       2       0      12     -24      33       3
      12      18      42      48      91      12      24      33      36      92
      12      24     -33      36       4      12      24      33      39      93
      12      24     -33      39       4      18      12      24      33      99
      18      12     -24      33       1      18      12     -24      33       5
      18      12     -24      33       6      18      42      48      57     100
      18      42     -48      57       7      21      18      42      48     102
      24      12      18      42     103      24      12     -18      42       9
      24      12     -18      42      10      42      48      57      63     104
      42      48     -57      63      11      42      48     -57      63      12
      48      57      63      69     106      57      63      69      78     109
      57      63     -69      78       7      60      57      63      69     111
      63      69      78      84     112      63      69     -78      84      11
      63      69     -78      84      12      69      78      84      90     114
      78      84      90      96     117      78      84     -90      96       7
      78      84      90     102     118      78      84     -90     102      14
      78      84     -90     102       8      81      78      84      90     120
      84      90      96     129     121      84      90     -96     129      11
      84      90     -96     129      12      84      90     102     111     124
      84      90    -102     111      15      84      90    -102     111      16
      84      90    -102     111      17      90      96     129     135     126
      90     102     111     120     129      90     102    -111     120      18
      90     102    -111     120      19      90     102    -111     120      20
      96      90     102     111     136      96      90    -102     111      15
      96      90    -102     111      21      96      90    -102     111      22
      96     129     135     144     137      96     129    -135     144       7
      99      96     129     135     139     102      90      96     129     140
     102      90     -96     129       9     102      90     -96     129      10
     102     111     120     123     141     102     111    -120     123      23
     102     111     120     126     142     102     111    -120     126      23
     129     135     144     150     149     129     135    -144     150      11
     129     135    -144     150      12     135     144     150     156     151
     144     150     156     165     154     144     150    -156     165       7
     147     144     150     156     156     150     156     165     171     157
     150     156    -165     171      11     150     156    -165     171      12
     156     165     171     177     159     165     171     177     183     162
     165     171    -177     183       7     165     171     177     189     163
     165     171    -177     189      14     165     171    -177     189       8
     168     165     171     177     165     171     177     183     228     166
     171     177    -183     228      11     171     177    -183     228      12
     171     177     189     195     168     171     177    -189     195      24
     171     177    -189     195      25     171     177    -189     195      26
     171     177     189     204     169     171     177    -189     204      27
     171     177    -189     204      28     171     177    -189     204      29
     177     183     228     234     171     177     189     195     216     174
     177     189    -195     216      30     177     189    -195     216      31
     177     189    -195     216      32     183     177     189     195     183
     183     177    -189     195      24     183     177    -189     195      33
     183     177    -189     195      34     183     177     189     204     184
     183     177    -189     204      27     183     177    -189     204      35
     183     177    -189     204      36     183     228     234     243     185
     183     228    -234     243       7     186     183     228     234     187
     189     177     183     228     188     189     177    -183     228       9
     189     177    -183     228      10     204     189     195     216     209
     204     189    -195     216      30     204     189    -195     216      37
     204     189    -195     216      38     228     234     243     249     210
     228     234    -243     249      11     228     234    -243     249      12
     234     243     249     255     212     243     249     255     264     215
     243     249    -255     264       7     246     243     249     255     217
     249     255     264     270     218     249     255    -264     270      11
     249     255    -264     270      12     255     264     270     276     220
     264     270     276     285     223     264     270    -276     285       7
     267     264     270     276     225     270     276     285     291     226
     270     276    -285     291      11     270     276    -285     291      12
     276     285     291     297     228     285     291     297     303     231
     285     291    -297     303       7     285     291     297     309     232
     285     291    -297     309      14     285     291    -297     309       8
     288     285     291     297     234     291     297     303     324     235
     291     297    -303     324      11     291     297    -303     324      12
     291     297     309     318     238     291     297    -309     318      39
     291     297    -309     318      40     291     297    -309     318      41
     297     303     324     330     240     303     297     309     318     248
     303     297    -309     318      39     303     297    -309     318      45
     303     297    -309     318      46     303     324     330     339     249
     303     324    -330     339       7     306     303     324     330     251
     309     297     303     324     252     309     297    -303     324       9
     309     297    -303     324      10     324     330     339     345     255
     324     330    -339     345      11     324     330    -339     345      12
     330     339     345     351     257     339     345     351     360     260
     339     345    -351     360       7     342     339     345     351     262
     345     351     360     366     263     345     351    -360     366      11
     345     351    -360     366      12     351     360     366     372     265
     360     366     372     378     268     360     366    -372     378       7
     360     366     372     384     269     360     366    -372     384      14
     360     366    -372     384       8     363     360     366     372     271
     366     372     378     438     272     366     372    -378     438      11
     366     372    -378     438      12     366     372     384     393     275
     366     372    -384     393      47     366     372    -384     393      48
     366     372    -384     393      49     372     378     438     444     277
     372     384     393     402     278     372     384    -393     402      50
     372     384    -393     402      51     372     384    -393     402      52
     378     372     384     393     285     378     372    -384     393      47
     378     372    -384     393      53     378     372    -384     393      54
     378     438     444     453     286     378     438    -444     453       7
     381     378     438     444     288     384     372     378     438     289
     384     372    -378     438       9     384     372    -378     438      10
     384     393     396     405     291     384     393     402     411     292
     384     393     402     414     293     393     396    -405     411      57
     393     402    -411     405      58     393     402     411     420     295
     393     402     414     426     297     396     393    -402     411      56
     396     393     402     414     298     396     405    -411     402      59
     396     405     411     420     299     402     393    -396     405      55
     402     411     420     432     305     402     414    -426     432      60
     405     411     402     414     307     405     411     420     432     309
     411     402     414     426     312     411     420    -432     426      60
     414     402     411     420     314     414     426    -432     420      60
     438     444     453     459     322     438     444    -453     459      11
     438     444    -453     459      12     444     453     459     465     324
     453     459     465     471     327     453     459    -465     471       7
     453     459     465     477     328     453     459    -465     477      14
     453     459    -465     477       8     456     453     459     465     330
     459     465     471     495     331     459     465    -471     495      11
     459     465    -471     495      12     459     465     477     486     334
     459     465    -477     486       1     459     465    -477     486       2
     459     465    -477     486       3     465     471     495     501     336
     465     477     486     489     337     465     477    -486     489       4
     465     477     486     492     338     465     477    -486     492       4
     471     465     477     486     345     471     465    -477     486       1
     471     465    -477     486       5     471     465    -477     486       6
     471     495     501     510     346     471     495    -501     510       7
     474     471     495     501     348     477     465     471     495     349
     477     465    -471     495       9     477     465    -471     495      10
     495     501     510     516     350     495     501    -510     516      11
     495     501    -510     516      12     501     510     516     522     352
     510     516     522     528     355     510     516    -522     528       7
     510     516     522     534     356     510     516    -522     534      14
     510     516    -522     534       8     513     510     516     522     358
     516     522     528     576     359     516     522    -528     576      11
     516     522    -528     576      12     516     522     534     543     362
     516     522    -534     543      61     516     522    -534     543      62
     516     522    -534     543      63     522     528     576     582     364
     522     534     543     546     365     522     534    -543     546      64
     522     534     543     552     366     522     534    -543     552      64
     528     522     534     543     373     528     522    -534     543      61
     528     522    -534     543      65     528     522    -534     543      66
     528     576     582     591     374     528     576    -582     591       7
     531     528     576     582     376     534     522     528     576     377
     534     522    -528     576       9     534     522    -528     576      10
     534     543     546     558     379     534     543     552     564     381
     543     546     558     570     383     543     552    -564     570      60
     546     543     552     564     386     546     558    -570     564      60
     552     543     546     558     391     552     564    -570     558      60
     576     582     591     597     399     576     582    -591     597      11
     576     582    -591     597      12     582     591     597     603     401
     591     597     603     612     404     591     597    -603     612       7
     594     591     597     603     406     597     603     612     618     407
     597     603    -612     618      11     597     603    -612     618      12
     603     612     618     624     409     612     618     624     633     412
     612     618    -624     633       7     615     612     618     624     414
     618     624     633     639     415     618     624    -633     639      11
     618     624    -633     639      12     624     633     639     645     417
     633     639     645     651     420     633     639    -645     651       7
     633     639     645     657     421     633     639    -645     657      14
     633     639    -645     657       8     636     633     639     645     423
     639     645     651     696     424     639     645    -651     696      11
     639     645    -651     696      12     639     645     657     666     427
     639     645    -657     666      15     639     645    -657     666      67
     639     645    -657     666      68     645     651     696     702     429
     645     657     666     672     431     645     657    -666     672      69
     645     657    -666     672      70     645     657    -666     672      71
     645     657     666     684     432     645     657    -666     684      69
     645     657    -666     684      70     645     657    -666     684      71
     651     645     657     666     439     651     645    -657     666      15
     651     645    -657     666      72     651     645    -657     666      73
     651     696     702     711     440     651     696    -702     711       7
     654     651     696     702     442     657     645     651     696     443
     657     645    -651     696       9     657     645    -651     696      10
     696     702     711     717     468     696     702    -711     717      11
     696     702    -711     717      12     702     711     717     723     470
     711     717     723     732     473     711     717    -723     732       7
     714     711     717     723     475     717     723     732     738     476
     717     723    -732     738      11     717     723    -732     738      12
     723     732     738     744     478     732     738     744     750     481
     732     738    -744     750       7     732     738     744     756     482
     732     738    -744     756      14     732     738    -744     756       8
     735     732     738     744     484     738     744     750     801     485
     738     744    -750     801      11     738     744    -750     801      12
     738     744     756     765     488     738     744    -756     765      61
     738     744    -756     765      62     738     744    -756     765      63
     744     750     801     807     490     744     756     765     768     491
     744     756    -765     768      64     744     756     765     774     492
     744     756    -765     774      64     750     744     756     765     499
     750     744    -756     765      61     750     744    -756     765      65
     750     744    -756     765      66     750     801     807     816     500
     750     801    -807     816       7     753     750     801     807     502
     756     744     750     801     503     756     744    -750     801       9
     756     744    -750     801      10     756     765     768     780     505
     756     765     774     786     507     765     768     780     792     509
     765     774    -786     792      60     768     765     774     786     512
     768     780    -792     786      60     768     780     792     795     513
     774     765     768     780     517     774     786    -792     780      60
     774     786     792     795     518     801     807     816     822     527
     801     807    -816     822      11     801     807    -816     822      12
     807     816     822     828     529     816     822     828     834     532
     816     822    -828     834       7     816     822     828     840     533
     816     822    -828     840      14     816     822    -828     840       8
     819     816     822     828     535     822     828     840     849     538
     822     828    -840     849      39     822     828    -840     849      40
     822     828    -840     849      41     834     828     840     849     545
     834     828    -840     849      39     834     828    -840     849      45
     834     828    -840     849      46     858     861     864     867     548
     858     861     864     906     549     861     864     867     870     550
     861     864     906     900     552     864     867     870     873     557
     864     906    -900     873      60     864     906     900     903     559
     867     864     906     900     560     867     870     873     876     562
     867     870    -873     900      60     870     867     864     906     563
     870     873     876     879     564     870     873     876     882     565
     870     873     900     903     566     870     873    -900     906      60
     873     876     882     885     568     873     876     882     897     569
     876     873     900     903     573     876     873     900     906     574
     876     882     885     888     575     876     882     897     894     577
     879     876     873     900     579     879     876     882     885     580
     879     876     882     897     581     882     876     873     900     582
     882     885     888     891     583     882     897    -894     891      60
     885     882     897     894     586     885     888    -891     894      60
     888     885     882     897     589     888     891    -894     897      60
      12      42     -18     -21      76      24      36     -33     -39      76
      48      63     -57     -60      76      69      84     -78     -81      76
      90     129     -96     -99      76     111     123    -120    -126      76
     135     150    -144    -147      76     156     171    -165    -168      76
     177     228    -183    -186      76     234     249    -243    -246      76
     255     270    -264    -267      76     276     291    -285    -288      76
     297     324    -303    -306      76     330     345    -339    -342      76
     351     366    -360    -363      76     372     438    -378    -381      76
     402     384    -393    -396      77     444     459    -453    -456      76
     465     495    -471    -474      76     477     489    -486    -492      76
     501     516    -510    -513      76     522     576    -528    -531      76
     546     552    -543    -534      77     582     597    -591    -594      76
     603     618    -612    -615      76     624     639    -633    -636      76
     645     696    -651    -654      76     702     717    -711    -714      76
     723     738    -732    -735      76     744     801    -750    -753      76
     768     774    -765    -756      77     780     786    -792    -795      77
     807     822    -816    -819      76     828     837    -834    -855      76
     867     906    -864    -861      77     870     876    -873    -900      77
     873     882    -876    -879      76     876     885    -882    -897      77
     873     906    -900    -903      77       0      12      18      21     605
       0      12      18      42     606      21      18      12      24     611
      42      48      57      60     616      63      69      78      81     624
      84      90      96      99     631      99      96      90     102     638
     129     135     144     147     643     150     156     165     168     651
     171     177     183     186     658     186     183     177     189     665
     228     234     243     246     666     249     255     264     267     674
     270     276     285     288     682     291     297     303     306     689
     306     303     297     309     696     324     330     339     342     697
     345     351     360     363     705     366     372     378     381     712
     372     384     393     396     716     381     378     372     384     720
     438     444     453     456     725     459     465     471     474     732
     474     471     465     477     739     495     501     510     513     744
     516     522     528     531     751     531     528     522     534     758
     576     582     591     594     763     597     603     612     615     771
     618     624     633     636     779     639     645     651     654     786
     654     651     645     657     793     696     702     711     714     794
     717     723     732     735     802     738     744     750     753     809
     753     750     744     756     816     801     807     816     819     821
     822     828     834     837     828     822     828     834     855     829
     837     834     828     840     835     840     828     834     855     836
%FLAG EXCLUDED_ATOMS_LIST
%FORMAT(10I8)
       2       3       4       5       6       7       8       9      10      11
      12      15       3       4       5       6       7       9       4       5
       6       7       9       5       6       7       9       6       7       8
       9      10      11      12      13      14      15      16      17       7
       8       9      10      11      12      15       8       9      10      11
      12      15      16      17      18      19      20       9      15      16
      17      10      11      12      13      14      15      11      12      13
      14      12      13      14      13      14      14       0      16      17
      18      19      20      21      22      17      18      19      20      18
      19      20      21      22      23      24      19      20      21      22
      20      21      22      21      22      23      24      25      26      27
      22      23      24      23      24      25      26      27      28      29
      24      25      26      27      25      26      27      28      29      30
      31      26      27      28      29      27      28      29      28      29
      30      31      32      33      35      29      30      31      30      31
      32      33      34      35      36      37      38      44      31      32
      33      35      32      33      34      35      36      37      38      39
      40      41      44      45      46      33      34      35      36      37
      38      44      34      35      36      37      38      44      45      46
      47      48      49      35      44      45      46      36      37      38
      39      40      41      42      43      44      37      38      39      40
      41      38      39      40      41      39      40      41      42      43
      40      41      42      43      41      42      43      42      43      43
       0      45      46      47      48      49      50      51      46      47
      48      49      47      48      49      50      51      52      53      48
      49      50      51      49      50      51      50      51      52      53
      54      55      56      51      52      53      52      53      54      55
      56      57      58      53      54      55      56      54      55      56
      57      58      59      60      55      56      57      58      56      57
      58      57      58      59      60      61      62      64      58      59
      60      59      60      61      62      63      64      65      66      69
      77      60      61      62      64      61      62      63      64      65
      66      67      68      69      70      71      72      73      77      78
      79      62      63      64      65      66      69      77      63      64
      65      66      69      77      78      79      80      81      82      64
      77      78      79      65      66      67      68      69      70      71
      72      73      74      75      76      77      66      67      68      69
      70      71      72      73      67      68      69      70      71      72
      73      74      75      76      68      69      73      74      75      76
      69      73      74      75      76      70      71      72      73      71
      72      72       0      74      75      76      75      76      76       0
      78      79      80      81      82      83      84      79      80      81
      82      80      81      82      83      84      85      86      81      82
      83      84      82      83      84      83      84      85      86      87
      88      89      84      85      86      85      86      87      88      89
      90      91      86      87      88      89      87      88      89      90
      91      92      93      88      89      90      91      89      90      91
      90      91      92      93      94      95      96      91      92      93
      92      93      94      95      96      97      98      93      94      95
      96      94      95      96      97      98      99     100      95      96
      97      98      96      97      98      97      98      99     100     101
     102     104      98      99     100      99     100     101     102     103
     104     105     106     107     109     100     101     102     104     101
     102     103     104     105     106     107     108     109     110     111
     102     103     104     105     106     107     109     103     104     105
     106     107     109     110     111     112     113     114     104     109
     110     111     105     106     107     108     109     106     107     108
     107     108     108       0     110     111     112     113     114     115
     116     111     112     113     114     112     113     114     115     116
     117     118     113     114     115     116     114     115     116     115
     116     117     118     119     120     121     116     117     118     117
     118     119     120     121     122     123     118     119     120     121
     119     120     121     122     123     124     125     120     121     122
     123     121     122     123     122     123     124     125     126     127
     129     123     124     125     124     125     126     127     128     129
     130     131     132     147     125     126     127     129     126     127
     128     129     130     131     132     133     135     147     148     149
     127     128     129     130     131     132     147     128     129     130
     131     132     147     148     149     150     151     152     129     147
     148     149     130     131     132     133     134     135     136     138
     139     147     131     132     133     135     132     133     135     133
     134     135     136     137     138     139     140     141     143     134
     135     136     137     138     139     141     135     136     137     138
     136     137     138     139     140     141     142     143     144     145
     137     138     139     141     142     145     138     141     139     140
     141     142     143     145     146     140     141     143     144     145
     146     143     144     145     142     143     144     145     146     143
     145     146     144     145     146     145     146     146       0     148
     149     150     151     152     153     154     149     150     151     152
     150     151     152     153     154     155     156     151     152     153
     154     152     153     154     153     154     155     156     157     158
     160     154     155     156     155     156     157     158     159     160
     161     162     163     166     156     157     158     160     157     158
     159     160     161     162     163     164     165     166     167     168
     158     159     160     161     162     163     166     159     160     161
     162     163     166     167     168     169     170     171     160     166
     167     168     161     162     163     164     165     166     162     163
     164     165     163     164     165     164     165     165       0     167
     168     169     170     171     172     173     168     169     170     171
     169     170     171     172     173     174     175     170     171     172
     173     171     172     173     172     173     174     175     176     177
     179     173     174     175     174     175     176     177     178     179
     180     181     182     193     175     176     177     179     176     177
     178     179     180     181     182     183     185     193     194     195
     177     178     179     180     181     182     193     178     179     180
     181     182     193     194     195     196     197     198     179     193
     194     195     180     181     182     183     184     185     186     187
     189     193     181     182     183     185     182     183     185     183
     184     185     186     187     188     189     190     191     184     185
     186     187     188     189     191     192     185     187     188     191
     186     187     189     190     191     192     189     190     191     188
     189     190     191     192     189     191     192     190     191     192
     191     192     192       0     194     195     196     197     198     199
     200     195     196     197     198     196     197     198     199     200
     201     202     197     198     199     200     198     199     200     199
     200     201     202     203     204     205     200     201     202     201
     202     203     204     205     206     207     202     203     204     205
     203     204     205     206     207     208     209     204     205     206
     207     205     206     207     206     207     208     209     210     211
     212     207     208     209     208     209     210     211     212     213
     214     209     210     211     212     210     211     212     213     214
     215     216     211     212     213     214     212     213     214     213
     214     215     216     217     218     220     214     215     216     215
     216     217     218     219     220     221     222     223     233     216
     217     218     220     217     218     219     220     221     222     223
     224     225     229     233     234     235     218     219     220     221
     222     223     233     219     220     221     222     223     233     234
     235     236     237     238     220     233     234     235     221     222
     223     224     225     226     227     228     229     230     231     232
     233     222     223     224     225     229     223     224     225     229
     224     225     226     227     228     229     230     231     232     225
     226     227     228     229     230     231     232     226     227     228
     229     230     231     232     227     228     229     228     229     229
     230     231     232     231     232     232       0     234     235     236
     237     238     239     240     235     236     237     238     236     237
     238     239     240     241     242     237     238     239     240     238
     239     240     239     240     241     242     243     244     245     240
     241     242     241     242     243     244     245     246     247     242
     243     244     245     243     244     245     246     247     248     249
     244     245     246     247     245     246     247     246     247     248
     249     250     251     253     247     248     249     248     249     250
     251     252     253     254     255     256     268     249     250     251
     253     250     251     252     253     254     255     256     257     259
     268     269     270     251     252     253     254     255     256     268
     252     253     254     255     256     268     269     270     271     272
     273     253     268     269     270     254     255     256     257     258
     259     260     261     263     268     255     256     257     259     256
     257     259     257     258     259     260     261     262     263     264
     265     258     259     260     261     262     263     265     266     259
     261     262     265     260     261     263     264     265     266     263
     264     265     262     263     264     265     266     267     263     265
     266     264     265     266     267     265     266     266     267     267
       0     269     270     271     272     273     274     275     270     271
     272     273     271     272     273     274     275     276     277     272
     273     274     275     273     274     275     274     275     276     277
     278     279     281     275     276     277     276     277     278     279
     280     281     282     283     284     286     277     278     279     281
     278     279     280     281     282     283     284     285     286     279
     280     281     282     283     284     286     280     281     282     283
     284     286     281     286     282     283     284     285     286     283
     284     285     284     285     285       0       0     288     289     290
     303     304     305     306     289     290     291     301     303     304
     305     306     307     315     290     291     292     301     302     303
     304     305     306     307     308     315     291     292     293     301
     303     307     308     315     292     293     294     295     301     302
     303     307     308     293     294     295     296     300     301     302
     303     307     308     314     315     294     295     296     297     299
     300     301     302     303     308     309     313     295     296     300
     301     296     297     298     299     300     301     309     310     312
     313     297     298     299     300     309     310     311     313     298
     299     300     309     310     311     312     299     300     309     310
     311     312     313     300     310     311     312     313     309     311
     312     313     302     303     308     314     315     303     314     315
     307     314     315     305     306     306       0     308       0     310
     311     312     313       0       0       0
%FLAG HBOND_ACOEF
%FORMAT(5E16.8)

%FLAG HBOND_BCOEF
%FORMAT(5E16.8)

%FLAG HBCUT
%FORMAT(5E16.8)

%FLAG AMBER_ATOM_TYPE
%FORMAT(20a4)
N1  H1  H1  H1  C1  H2  C2  O1  C1  H3  H3  C2  O1  O1  N1  H1  C1  H4  H4  C2  
O1  N1  H1  C1  H4  H4  C2  O1  N1  H1  C1  H4  C2  O1  C1  H3  H3  C1  H3  H3  
C2  O1  O1  N1  H1  C1  H4  H4  C2  O1  N1  H1  C1  H4  H4  C2  O1  N1  H1  C1  
H4  C2  O1  C1  H3  C1  H3  H3  C1  H3  H3  H3  C1  H3  H3  H3  N1  H1  C1  H4  
H4  C2  O1  N1  H1  C1  H4  H4  C2  O1  N1  H1  C1  H4  H4  C2  O1  N1  H1  C1  
H4  C2  O1  C1  H4  H4  O2  H5  N1  H1  C1  H4  H4  C2  O1  N1  H1  C1  H4  H4  
C2  O1  N1  H1  C1  H4  C2  O1  C1  H3  H3  C2  C2  H6  C2  N1  H1  C2  C2  H7  
C2  H7  C2  H7  C2  H7  N1  H1  C1  H4  H4  C2  O1  N1  H1  C1  H4  C2  O1  C1  
H3  H3  C2  O1  O1  N1  H1  C1  H4  H4  C2  O1  N1  H1  C1  H4  C2  O1  C1  H3  
H3  C2  C2  H7  C2  H7  C2  H7  C2  H7  C2  H7  N1  H1  C1  H4  H4  C2  O1  N1  
H1  C1  H4  H4  C2  O1  N1  H1  C1  H4  H4  C2  O1  N1  H1  C1  H4  C2  O1  C1  
H3  H3  C1  H3  C1  H3  H3  H3  C1  H3  H3  H3  N1  H1  C1  H4  H4  C2  O1  N1  
H1  C1  H4  H4  C2  O1  N1  H1  C1  H4  C2  O1  C1  H3  H3  C2  C2  H7  C2  H7  
C2  H7  C2  H7  C2  O2  H5  N1  H1  C1  H4  H4  C2  O1  N1  H1  C1  H4  C2  O1  
C1  H4  H4  O2  H5  O1  C3  O3  C4  C4  C4  C4  C4  O4  C4  C4  C4  C4  C4  C4  
C4  O5  C4  H8  H8  H8  H9  H9  H9  H9  H9  H9  H9  H10 H9  
%FLAG TREE_CHAIN_CLASSIFICATION
%FORMAT(20a4)
BLA BLA BLA BLA BLA BLA BLA BLA BLA BLA BLA BLA BLA BLA BLA BLA BLA BLA BLA BLA 
BLA BLA BLA BLA BLA BLA BLA BLA BLA BLA BLA BLA BLA BLA BLA BLA BLA BLA BLA BLA 
BLA BLA BLA BLA BLA BLA BLA BLA BLA BLA BLA BLA BLA BLA BLA BLA BLA BLA BLA BLA 
BLA BLA BLA BLA BLA BLA BLA BLA BLA BLA BLA BLA BLA BLA BLA BLA BLA BLA BLA BLA 
BLA BLA BLA BLA BLA BLA BLA BLA BLA BLA BLA BLA BLA BLA BLA BLA BLA BLA BLA BLA 
BLA BLA BLA BLA BLA BLA BLA BLA BLA BLA BLA BLA BLA BLA BLA BLA BLA BLA BLA BLA 
BLA BLA BLA BLA BLA BLA BLA BLA BLA BLA BLA BLA BLA BLA BLA BLA BLA BLA BLA BLA 
BLA BLA BLA BLA BLA BLA BLA BLA BLA BLA BLA BLA BLA BLA BLA BLA BLA BLA BLA BLA 
BLA BLA BLA BLA BLA BLA BLA BLA BLA BLA BLA BLA BLA BLA BLA BLA BLA BLA BLA BLA 
BLA BLA BLA BLA BLA BLA BLA BLA BLA BLA BLA BLA BLA BLA BLA BLA BLA BLA BLA BLA 
BLA BLA BLA BLA BLA BLA BLA BLA BLA BLA BLA BLA BLA BLA BLA BLA BLA BLA BLA BLA 
BLA BLA BLA BLA BLA BLA BLA BLA BLA BLA BLA BLA BLA BLA BLA BLA BLA BLA BLA BLA 
BLA BLA BLA BLA BLA BLA BLA BLA BLA BLA BLA BLA BLA BLA BLA BLA BLA BLA BLA BLA 
BLA BLA BLA BLA BLA BLA BLA BLA BLA BLA BLA BLA BLA BLA BLA BLA BLA BLA BLA BLA 
BLA BLA BLA BLA BLA BLA BLA BLA BLA BLA BLA BLA BLA BLA BLA BLA BLA BLA BLA BLA 
BLA BLA BLA BLA BLA BLA BLA BLA BLA BLA BLA BLA BLA BLA BLA 
%FLAG JOIN_ARRAY
%FORMAT(10I8)
       0       0       0       0       0       0       0       0       0       0
       0       0       0       0       0       0       0       0       0       0
       0       0       0       0       0       0       0       0       0       0
       0       0       0       0       0       0       0       0       0       0
       0       0       0       0       0       0       0       0       0       0
       0       0       0       0       0       0       0       0       0       0
       0       0       0       0       0       0       0       0       0       0
       0       0       0       0       0       0       0       0       0       0
       0       0       0       0       0       0       0       0       0       0
       0       0       0       0       0       0       0       0       0       0
       0       0       0       0       0       0       0       0       0       0
       0       0       0       0       0       0       0       0       0       0
       0       0       0       0       0       0       0       0       0       0
       0       0       0       0       0       0       0       0       0       0
       0       0       0       0       0       0       0       0       0       0
       0       0       0       0       0       0       0       0       0       0
       0       0       0       0       0       0       0       0       0       0
       0       0       0       0       0       0       0       0       0       0
       0       0       0       0       0       0       0       0       0       0
       0       0       0       0       0       0       0       0       0       0
       0       0       0       0       0       0       0       0       0       0
       0       0       0       0       0       0       0       0       0       0
       0       0       0       0       0       0       0       0       0       0
       0       0       0       0       0       0       0       0       0       0
       0       0       0       0       0       0       0       0       0       0
       0       0       0       0       0       0       0       0       0       0
       0       0       0       0       0       0       0       0       0       0
       0       0       0       0       0       0       0       0       0       0
       0       0       0       0       0       0       0       0       0       0
       0       0       0       0       0       0       0       0       0       0
       0       0       0       0       0       0       0       0       0       0
       0       0       0       0       0
%FLAG IROTAT
%FORMAT(10I8)
       0       0       0       0       0       0       0       0       0       0
       0       0       0       0       0       0       0       0       0       0
       0       0       0       0       0       0       0       0       0       0
       0       0       0       0       0       0       0       0       0       0
       0       0       0       0       0       0       0       0       0       0
       0       0       0       0       0       0       0       0       0       0
       0       0       0       0       0       0       0       0       0       0
       0       0       0       0       0       0       0       0       0       0
       0       0       0       0       0       0       0       0       0       0
       0       0       0       0       0       0       0       0       0       0
       0       0       0       0       0       0       0       0       0       0
       0       0       0       0       0       0       0       0       0       0
       0       0       0       0       0       0       0       0       0       0
       0       0       0       0       0       0       0       0       0       0
       0       0       0       0       0       0       0       0       0       0
       0       0       0       0       0       0       0       0       0       0
       0       0       0       0       0       0       0       0       0       0
       0       0       0       0       0       0       0       0       0       0
       0       0       0       0       0       0       0       0       0       0
       0       0       0       0       0       0       0       0       0       0
       0       0       0       0       0       0       0       0       0       0
       0       0       0       0       0       0       0       0       0       0
       0       0       0       0       0       0       0       0       0       0
       0       0       0       0       0       0       0       0       0       0
       0       0       0       0       0       0       0       0       0       0
       0       0       0       0       0       0       0       0       0       0
       0       0       0       0       0       0       0       0       0       0
       0       0       0       0       0       0       0       0       0       0
       0       0       0       0       0       0       0       0       0       0
       0       0       0       0       0       0       0       0       0       0
       0       0       0       0       0       0       0       0       0       0
       0       0       0       0       0
%FLAG RADIUS_SET
%FORMAT(1a80)
H(N)-modified Bondi radii (mbondi2)                                             
%FLAG RADII
%FORMAT(5E16.8)
  1.55000000E+00  1.30000000E+00  1.30000000E+00  1.30000000E+00  1.70000000E+00
  1.20000000E+00  1.70000000E+00  1.50000000E+00  1.70000000E+00  1.20000000E+00
  1.20000000E+00  1.70000000E+00  1.50000000E+00  1.50000000E+00  1.55000000E+00
  1.30000000E+00  1.70000000E+00  1.20000000E+00  1.20000000E+00  1.70000000E+00
  1.50000000E+00  1.55000000E+00  1.30000000E+00  1.70000000E+00  1.20000000E+00
  1.20000000E+00  1.70000000E+00  1.50000000E+00  1.55000000E+00  1.30000000E+00
  1.70000000E+00  1.20000000E+00  1.70000000E+00  1.50000000E+00  1.70000000E+00
  1.20000000E+00  1.20000000E+00  1.70000000E+00  1.20000000E+00  1.20000000E+00
  1.70000000E+00  1.50000000E+00  1.50000000E+00  1.55000000E+00  1.30000000E+00
  1.70000000E+00  1.20000000E+00  1.20000000E+00  1.70000000E+00  1.50000000E+00
  1.55000000E+00  1.30000000E+00  1.70000000E+00  1.20000000E+00  1.20000000E+00
  1.70000000E+00  1.50000000E+00  1.55000000E+00  1.30000000E+00  1.70000000E+00
  1.20000000E+00  1.70000000E+00  1.50000000E+00  1.70000000E+00  1.20000000E+00
  1.70000000E+00  1.20000000E+00  1.20000000E+00  1.70000000E+00  1.20000000E+00
  1.20000000E+00  1.20000000E+00  1.70000000E+00  1.20000000E+00  1.20000000E+00
  1.20000000E+00  1.55000000E+00  1.30000000E+00  1.70000000E+00  1.20000000E+00
  1.20000000E+00  1.70000000E+00  1.50000000E+00  1.55000000E+00  1.30000000E+00
  1.70000000E+00  1.20000000E+00  1.20000000E+00  1.70000000E+00  1.50000000E+00
  1.55000000E+00  1.30000000E+00  1.70000000E+00  1.20000000E+00  1.20000000E+00
  1.70000000E+00  1.50000000E+00  1.55000000E+00  1.30000000E+00  1.70000000E+00
  1.20000000E+00  1.70000000E+00  1.50000000E+00  1.70000000E+00  1.20000000E+00
  1.20000000E+00  1.50000000E+00  1.20000000E+00  1.55000000E+00  1.30000000E+00
  1.70000000E+00  1.20000000E+00  1.20000000E+00  1.70000000E+00  1.50000000E+00
  1.55000000E+00  1.30000000E+00  1.70000000E+00  1.20000000E+00  1.20000000E+00
  1.70000000E+00  1.50000000E+00  1.55000000E+00  1.30000000E+00  1.70000000E+00
  1.20000000E+00  1.70000000E+00  1.50000000E+00  1.70000000E+00  1.20000000E+00
  1.20000000E+00  1.70000000E+00  1.70000000E+00  1.20000000E+00  1.70000000E+00
  1.55000000E+00  1.30000000E+00  1.70000000E+00  1.70000000E+00  1.20000000E+00
  1.70000000E+00  1.20000000E+00  1.70000000E+00  1.20000000E+00  1.70000000E+00
  1.20000000E+00  1.55000000E+00  1.30000000E+00  1.70000000E+00  1.20000000E+00
  1.20000000E+00  1.70000000E+00  1.50000000E+00  1.55000000E+00  1.30000000E+00
  1.70000000E+00  1.20000000E+00  1.70000000E+00  1.50000000E+00  1.70000000E+00
  1.20000000E+00  1.20000000E+00  1.70000000E+00  1.50000000E+00  1.50000000E+00
  1.55000000E+00  1.30000000E+00  1.70000000E+00  1.20000000E+00  1.20000000E+00
  1.70000000E+00  1.50000000E+00  1.55000000E+00  1.30000000E+00  1.70000000E+00
  1.20000000E+00  1.70000000E+00  1.50000000E+00  1.70000000E+00  1.20000000E+00
  1.20000000E+00  1.70000000E+00  1.70000000E+00  1.20000000E+00  1.70000000E+00
  1.20000000E+00  1.70000000E+00  1.20000000E+00  1.70000000E+00  1.20000000E+00
  1.70000000E+00  1.20000000E+00  1.55000000E+00  1.30000000E+00  1.70000000E+00
  1.20000000E+00  1.20000000E+00  1.70000000E+00  1.50000000E+00  1.55000000E+00
  1.30000000E+00  1.70000000E+00  1.20000000E+00  1.20000000E+00  1.70000000E+00
  1.50000000E+00  1.55000000E+00  1.30000000E+00  1.70000000E+00  1.20000000E+00
  1.20000000E+00  1.70000000E+00  1.50000000E+00  1.55000000E+00  1.30000000E+00
  1.70000000E+00  1.20000000E+00  1.70000000E+00  1.50000000E+00  1.70000000E+00
  1.20000000E+00  1.20000000E+00  1.70000000E+00  1.20000000E+00  1.70000000E+00
  1.20000000E+00  1.20000000E+00  1.20000000E+00  1.70000000E+00  1.20000000E+00
  1.20000000E+00  1.20000000E+00  1.55000000E+00  1.30000000E+00  1.70000000E+00
  1.20000000E+00  1.20000000E+00  1.70000000E+00  1.50000000E+00  1.55000000E+00
  1.30000000E+00  1.70000000E+00  1.20000000E+00  1.20000000E+00  1.70000000E+00
  1.50000000E+00  1.55000000E+00  1.30000000E+00  1.70000000E+00  1.20000000E+00
  1.70000000E+00  1.50000000E+00  1.70000000E+00  1.20000000E+00  1.20000000E+00
  1.70000000E+00  1.70000000E+00  1.20000000E+00  1.70000000E+00  1.20000000E+00
  1.70000000E+00  1.20000000E+00  1.70000000E+00  1.20000000E+00  1.70000000E+00
  1.50000000E+00  1.20000000E+00  1.55000000E+00  1.30000000E+00  1.70000000E+00
  1.20000000E+00  1.20000000E+00  1.70000000E+00  1.50000000E+00  1.55000000E+00
  1.30000000E+00  1.70000000E+00  1.20000000E+00  1.70000000E+00  1.50000000E+00
  1.70000000E+00  1.20000000E+00  1.20000000E+00  1.50000000E+00  1.20000000E+00
  1.50000000E+00  1.70000000E+00  1.50000000E+00  1.70000000E+00  1.70000000E+00
  1.70000000E+00  1.70000000E+00  1.70000000E+00  1.50000000E+00  1.70000000E+00
  1.70000000E+00  1.70000000E+00  1.70000000E+00  1.70000000E+00  1.70000000E+00
  1.70000000E+00  1.50000000E+00  1.70000000E+00  1.20000000E+00  1.20000000E+00
  1.20000000E+00  1.20000000E+00  1.20000000E+00  1.20000000E+00  1.20000000E+00
  1.20000000E+00  1.20000000E+00  1.20000000E+00  1.20000000E+00  1.20000000E+00
%FLAG SCREEN
%FORMAT(5E16.8)
  7.90000000E-01  8.50000000E-01  8.50000000E-01  8.50000000E-01  7.20000000E-01
  8.50000000E-01  7.20000000E-01  8.50000000E-01  7.20000000E-01  8.50000000E-01
  8.50000000E-01  7.20000000E-01  8.50000000E-01  8.50000000E-01  7.90000000E-01
  8.50000000E-01  7.20000000E-01  8.50000000E-01  8.50000000E-01  7.20000000E-01
  8.50000000E-01  7.90000000E-01  8.50000000E-01  7.20000000E-01  8.50000000E-01
  8.50000000E-01  7.20000000E-01  8.50000000E-01  7.90000000E-01  8.50000000E-01
  7.20000000E-01  8.50000000E-01  7.20000000E-01  8.50000000E-01  7.20000000E-01
  8.50000000E-01  8.50000000E-01  7.20000000E-01  8.50000000E-01  8.50000000E-01
  7.20000000E-01  8.50000000E-01  8.50000000E-01  7.90000000E-01  8.50000000E-01
  7.20000000E-01  8.50000000E-01  8.50000000E-01  7.20000000E-01  8.50000000E-01
  7.90000000E-01  8.50000000E-01  7.20000000E-01  8.50000000E-01  8.50000000E-01
  7.20000000E-01  8.50000000E-01  7.90000000E-01  8.50000000E-01  7.20000000E-01
  8.50000000E-01  7.20000000E-01  8.50000000E-01  7.20000000E-01  8.50000000E-01
  7.20000000E-01  8.50000000E-01  8.50000000E-01  7.20000000E-01  8.50000000E-01
  8.50000000E-01  8.50000000E-01  7.20000000E-01  8.50000000E-01  8.50000000E-01
  8.50000000E-01  7.90000000E-01  8.50000000E-01  7.20000000E-01  8.50000000E-01
  8.50000000E-01  7.20000000E-01  8.50000000E-01  7.90000000E-01  8.50000000E-01
  7.20000000E-01  8.50000000E-01  8.50000000E-01  7.20000000E-01  8.50000000E-01
  7.90000000E-01  8.50000000E-01  7.20000000E-01  8.50000000E-01  8.50000000E-01
  7.20000000E-01  8.50000000E-01  7.90000000E-01  8.50000000E-01  7.20000000E-01
  8.50000000E-01  7.20000000E-01  8.50000000E-01  7.20000000E-01  8.50000000E-01
  8.50000000E-01  8.50000000E-01  8.50000000E-01  7.90000000E-01  8.50000000E-01
  7.20000000E-01  8.50000000E-01  8.50000000E-01  7.20000000E-01  8.50000000E-01
  7.90000000E-01  8.50000000E-01  7.20000000E-01  8.50000000E-01  8.50000000E-01
  7.20000000E-01  8.50000000E-01  7.90000000E-01  8.50000000E-01  7.20000000E-01
  8.50000000E-01  7.20000000E-01  8.50000000E-01  7.20000000E-01  8.50000000E-01
  8.50000000E-01  7.20000000E-01  7.20000000E-01  8.50000000E-01  7.20000000E-01
  7.90000000E-01  8.50000000E-01  7.20000000E-01  7.20000000E-01  8.50000000E-01
  7.20000000E-01  8.50000000E-01  7.20000000E-01  8.50000000E-01  7.20000000E-01
  8.50000000E-01  7.90000000E-01  8.50000000E-01  7.20000000E-01  8.50000000E-01
  8.50000000E-01  7.20000000E-01  8.50000000E-01  7.90000000E-01  8.50000000E-01
  7.20000000E-01  8.50000000E-01  7.20000000E-01  8.50000000E-01  7.20000000E-01
  8.50000000E-01  8.50000000E-01  7.20000000E-01  8.50000000E-01  8.50000000E-01
  7.90000000E-01  8.50000000E-01  7.20000000E-01  8.50000000E-01  8.50000000E-01
  7.20000000E-01  8.50000000E-01  7.90000000E-01  8.50000000E-01  7.20000000E-01
  8.50000000E-01  7.20000000E-01  8.50000000E-01  7.20000000E-01  8.50000000E-01
  8.50000000E-01  7.20000000E-01  7.20000000E-01  8.50000000E-01  7.20000000E-01
  8.50000000E-01  7.20000000E-01  8.50000000E-01  7.20000000E-01  8.50000000E-01
  7.20000000E-01  8.50000000E-01  7.90000000E-01  8.50000000E-01  7.20000000E-01
  8.50000000E-01  8.50000000E-01  7.20000000E-01  8.50000000E-01  7.90000000E-01
  8.50000000E-01  7.20000000E-01  8.50000000E-01  8.50000000E-01  7.20000000E-01
  8.50000000E-01  7.90000000E-01  8.50000000E-01  7.20000000E-01  8.50000000E-01
  8.50000000E-01  7.20000000E-01  8.50000000E-01  7.90000000E-01  8.50000000E-01
  7.20000000E-01  8.50000000E-01  7.20000000E-01  8.50000000E-01  7.20000000E-01
  8.50000000E-01  8.50000000E-01  7.20000000E-01  8.50000000E-01  7.20000000E-01
  8.50000000E-01  8.50000000E-01  8.50000000E-01  7.20000000E-01  8.50000000E-01
  8.50000000E-01  8.50000000E-01  7.90000000E-01  8.50000000E-01  7.20000000E-01
  8.50000000E-01  8.50000000E-01  7.20000000E-01  8.50000000E-01  7.90000000E-01
  8.50000000E-01  7.20000000E-01  8.50000000E-01  8.50000000E-01  7.20000000E-01
  8.50000000E-01  7.90000000E-01  8.50000000E-01  7.20000000E-01  8.50000000E-01
  7.20000000E-01  8.50000000E-01  7.20000000E-01  8.50000000E-01  8.50000000E-01
  7.20000000E-01  7.20000000E-01  8.50000000E-01  7.20000000E-01  8.50000000E-01
  7.20000000E-01  8.50000000E-01  7.20000000E-01  8.50000000E-01  7.20000000E-01
  8.50000000E-01  8.50000000E-01  7.90000000E-01  8.50000000E-01  7.20000000E-01
  8.50000000E-01  8.50000000E-01  7.20000000E-01  8.50000000E-01  7.90000000E-01
  8.50000000E-01  7.20000000E-01  8.50000000E-01  7.20000000E-01  8.50000000E-01
  7.20000000E-01  8.50000000E-01  8.50000000E-01  8.50000000E-01  8.50000000E-01
  8.50000000E-01  7.20000000E-01  8.50000000E-01  7.20000000E-01  7.20000000E-01
  7.20000000E-01  7.20000000E-01  7.20000000E-01  8.50000000E-01  7.20000000E-01
  7.20000000E-01  7.20000000E-01  7.20000000E-01  7.20000000E-01  7.20000000E-01
  7.20000000E-01  8.50000000E-01  7.20000000E-01  8.50000000E-01  8.50000000E-01
  8.50000000E-01  8.50000000E-01  8.50000000E-01  8.50000000E-01  8.50000000E-01
  8.50000000E-01  8.50000000E-01  8.50000000E-01  8.50000000E-01  8.50000000E-01
%FLAG IPOL
%FORMAT(1I8)
       0
