
  315  0.0000000e+00
  -0.7440000  -7.7550000   7.4500000  -0.0390000  -7.4630000   8.1110000
  -1.2200000  -8.5050000   7.9310000  -0.2920000  -8.0210000   6.5870000
  -1.6610000  -6.6090000   7.2560000  -2.3550000  -6.9250000   6.4780000
  -0.8980000  -5.4090000   6.7380000   0.1180000  -4.9880000   7.3750000
  -2.5660000  -6.3330000   8.4660000  -1.9480000  -6.1250000   9.3400000
  -3.0950000  -5.3950000   8.2920000  -3.4970000  -7.4670000   8.7730000
  -3.2740000  -8.6140000   8.3660000  -4.5440000  -7.2070000   9.4000000
  -1.3580000  -4.8300000   5.6470000  -2.1030000  -5.2980000   5.1510000
  -0.5560000  -3.8010000   5.0130000  -0.0760000  -3.2850000   5.8440000
  -1.2610000  -3.1230000   4.5320000   0.4650000  -4.3470000   4.0180000
   0.5590000  -5.5170000   3.7690000   1.1830000  -3.4010000   3.3960000
   1.0440000  -2.4340000   3.6540000   2.2030000  -3.7580000   2.3980000
   2.9680000  -4.3550000   2.8950000   1.7220000  -4.3480000   1.6190000
   2.8000000  -2.4730000   1.8080000   2.3860000  -1.3590000   2.0920000
   3.8430000  -2.7340000   0.9680000   4.0310000  -3.6750000   0.6530000
   4.7220000  -1.7130000   0.5320000   4.6620000  -1.0240000   1.3750000
   4.1780000  -1.0170000  -0.7320000   3.5090000  -1.6120000  -1.5730000
   6.1170000  -2.1660000   0.4190000   6.7720000  -1.6600000  -0.2910000
   6.2230000  -3.2250000   0.1830000   6.8210000  -2.0750000   1.8040000
   6.0840000  -2.4380000   2.5210000   6.9710000  -1.0170000   2.0180000
   8.1080000  -2.8910000   1.8550000   8.2960000  -3.9360000   1.1570000
   8.8790000  -2.6940000   2.7620000   4.4820000   0.3280000  -0.7990000
   5.0490000   0.7330000  -0.0680000   4.0150000   1.3590000  -1.8380000
   4.9020000   1.7860000  -2.3060000   3.4680000   0.8380000  -2.6240000
   3.0840000   2.4320000  -1.2970000   2.7110000   2.4840000  -0.1720000
   2.6380000   3.1990000  -2.2380000   2.9700000   3.0100000  -3.1730000
   1.8370000   4.4340000  -2.0400000   1.3410000   4.6130000  -2.9950000
   1.1750000   4.3010000  -1.1850000   2.6810000   5.7590000  -1.7950000
   3.8080000   5.6470000  -1.2890000   2.1050000   6.9100000  -2.1130000
   1.1380000   6.8960000  -2.4030000   2.6850000   8.2560000  -1.9290000
   3.5750000   8.3310000  -2.5540000   3.1410000   8.4560000  -0.4730000
   2.3910000   8.0650000   0.3980000   1.7420000   9.3990000  -2.3780000
   0.9280000   9.3770000  -1.6530000   1.1870000   9.2220000  -3.7750000
   0.4950000   8.3800000  -3.7550000   0.6890000  10.1430000  -4.0770000
   2.3690000  10.8070000  -2.3050000   2.2170000  11.2550000  -1.3230000
   3.4120000  10.6120000  -2.5550000   1.9420000  11.4790000  -3.0500000
   2.1460000   8.9370000  -4.9330000   2.8920000   9.7290000  -4.9910000
   2.5590000   7.9290000  -4.8850000   1.5890000   8.9400000  -5.8700000
   4.3680000   8.9510000  -0.2650000   5.0140000   9.2220000  -0.9930000
   4.8970000   8.9900000   1.1560000   5.7540000   9.6650000   1.1500000
   4.1140000   9.4480000   1.7590000   5.2540000   7.6440000   1.7940000
   5.3060000   7.5340000   2.9700000   5.3370000   6.6180000   0.9430000
   5.0890000   6.7870000  -0.0220000   5.7230000   5.3570000   1.4360000
   6.1580000   4.7460000   0.6460000   6.4460000   5.4300000   2.2490000
   4.5650000   4.6020000   2.1130000   3.4170000   5.1050000   2.1600000
   4.7000000   3.3300000   2.4850000   5.5310000   2.8050000   2.2530000
   3.6830000   2.5750000   3.2280000   3.2330000   3.0770000   4.0850000
   2.8500000   2.3540000   2.5600000   4.2440000   1.2200000   3.6700000
   5.1970000   0.6590000   3.1550000   3.4620000   0.5900000   4.6050000
   2.7720000   1.1120000   5.1270000   3.7050000  -0.8270000   5.0430000
   3.6110000  -1.5550000   4.2370000   2.6840000  -1.3250000   6.1030000
   2.5110000  -2.5270000   6.2130000   5.0190000  -0.9780000   5.6920000
   5.0510000  -1.9710000   6.1390000   5.8380000  -1.1750000   5.0010000
   5.2890000  -0.0320000   6.7430000   5.1710000  -0.4820000   7.5830000
   2.0560000  -0.4300000   6.8290000   2.3470000   0.5290000   6.7040000
   1.0080000  -0.6650000   7.8540000   1.0890000   0.0990000   8.6270000
   1.1060000  -1.6550000   8.2990000  -0.4690000  -0.6260000   7.4620000
  -1.2640000  -1.1350000   8.2220000  -0.8440000  -0.1420000   6.2670000
  -0.1470000   0.3910000   5.7660000  -2.2970000  -0.2320000   5.7320000
  -2.6000000  -1.2530000   5.5010000  -2.9160000   0.1850000   6.5260000
  -2.8260000   0.5630000   4.5210000  -2.1700000   1.3060000   3.8020000
  -4.1300000   0.2790000   4.2520000  -4.6200000  -0.3930000   4.8250000
  -4.8340000   0.8220000   3.0100000  -4.1480000   0.8230000   2.1630000
  -5.2370000   2.2780000   2.9870000  -6.1960000   2.6210000   2.2440000
  -6.0380000  -0.1150000   2.7620000  -6.6760000   0.2350000   1.9500000
  -6.5960000  -0.2820000   3.6830000  -5.5760000  -1.4990000   2.3480000
  -5.0360000  -2.4160000   3.1870000  -4.8490000  -2.2560000   4.2380000
  -5.6860000  -2.0460000   1.0210000  -4.6870000  -3.5180000   2.4390000
  -4.2170000  -4.3540000   2.7560000  -5.0740000  -3.3250000   1.0740000
  -6.2250000  -1.6610000  -0.2030000  -6.6480000  -0.6680000  -0.2630000
  -5.0790000  -4.2080000   0.0010000  -4.6620000  -5.1880000   0.1780000
  -6.1560000  -2.4810000  -1.3520000  -6.6080000  -2.1380000  -2.2710000
  -5.6850000  -3.8340000  -1.1830000  -5.6210000  -4.4880000  -2.0400000
  -4.7340000   3.1050000   3.9670000  -4.0350000   2.7880000   4.6240000
  -5.1420000   4.4840000   4.0360000  -4.9070000   4.8630000   5.0310000
  -6.2020000   4.3970000   3.8000000  -4.4340000   5.2580000   2.9110000
  -4.6400000   5.1160000   1.6980000  -3.6510000   6.2520000   3.3150000
  -3.2190000   6.1650000   4.2240000  -3.2010000   7.3590000   2.4170000
  -3.9840000   7.4610000   1.6660000  -1.9230000   6.9780000   1.6760000
  -1.0520000   6.2280000   2.1490000  -3.0770000   8.7040000   3.1650000
  -3.9160000   8.8350000   3.8490000  -2.1650000   8.8160000   3.7500000
  -3.1200000  10.0090000   2.3350000  -3.2100000   9.8360000   1.0560000
  -2.8780000  11.1600000   2.8570000  -1.9000000   7.2430000   0.3840000
  -2.7530000   7.5880000  -0.0340000  -0.8240000   6.8830000  -0.5210000
  -0.4770000   7.6700000  -1.1900000   0.0420000   6.5630000   0.0580000
  -1.0790000   5.7230000  -1.4660000  -0.8330000   5.8320000  -2.6680000
  -1.6520000   4.6900000  -0.9030000  -1.8190000   4.7810000   0.0890000
  -2.2340000   3.5920000  -1.6680000  -1.5090000   2.8410000  -1.9820000
  -2.9100000   3.9720000  -2.9900000  -2.6180000   3.4290000  -4.0140000
  -3.2450000   2.7670000  -0.7520000  -2.6660000   2.2240000  -0.0050000
  -3.9830000   3.4030000  -0.2640000  -4.0050000   1.6370000  -1.4900000
  -3.2480000   0.5480000  -2.0160000  -2.2290000   0.4860000  -1.6650000
  -5.3080000   1.9280000  -1.8420000  -5.9030000   2.6890000  -1.3580000
  -3.8540000  -0.2940000  -3.0240000  -3.3080000  -1.0410000  -3.5810000
  -5.9180000   1.0870000  -2.8010000  -6.8900000   1.4180000  -3.1390000
  -5.2090000  -0.0400000  -3.3150000  -5.6270000  -0.6790000  -4.0790000
  -3.9070000   4.9500000  -2.9270000  -4.0770000   5.5400000  -2.1250000
  -4.7610000   5.2660000  -4.0850000  -5.6450000   5.7730000  -3.6980000
  -5.1040000   4.3210000  -4.5050000  -4.1230000   6.1660000  -5.1660000
  -4.6910000   6.5220000  -6.2450000  -2.9660000   6.7620000  -4.8550000
  -2.6190000   6.4710000  -3.9520000  -2.0860000   7.5580000  -5.6490000
  -1.4350000   7.9770000  -4.8830000  -2.6820000   8.4130000  -5.9670000
  -1.2970000   6.9150000  -6.8380000  -0.7300000   7.5550000  -7.7090000
  -1.3340000   5.5780000  -6.9010000  -1.7780000   5.2610000  -6.0510000
  -0.7000000   4.5700000  -7.7360000  -1.4510000   4.0580000  -8.3370000
   0.0580000   5.0070000  -8.3860000   0.0590000   3.6420000  -6.8260000
   0.7820000   4.0770000  -5.9080000  -0.2420000   2.3720000  -7.1050000
  -0.9790000   2.2050000  -7.7760000   0.3930000   1.3090000  -6.3050000
   0.3940000   1.5690000  -5.2470000   1.8670000   1.0440000  -6.6800000
   2.3580000   1.0960000  -7.8240000  -0.4860000   0.0650000  -6.5630000
  -0.6480000  -0.1170000  -7.6250000  -1.4490000   0.1920000  -6.0690000
  -0.0120000  -1.2360000  -5.9590000   0.9820000  -1.5020000  -6.3180000
   0.0160000  -1.2150000  -4.4260000  -0.9690000  -1.1440000  -3.9650000
   0.5970000  -0.4010000  -3.9930000   0.4590000  -2.1350000  -4.0460000
  -0.9170000  -2.3770000  -6.3820000  -1.9020000  -2.1860000  -5.9580000
  -0.4900000  -3.2850000  -5.9560000  -0.9710000  -2.4200000  -7.4700000
   2.5530000   0.4810000  -5.6620000   2.0520000   0.3400000  -4.7970000
   4.0660000   0.4570000  -5.5760000   4.4550000   0.6540000  -6.5750000
   4.4100000   1.2160000  -4.8730000   4.6910000  -0.8340000  -5.0800000
   5.8920000  -0.8360000  -4.9350000   3.9730000  -1.9230000  -4.8400000
   3.0590000  -1.9470000  -5.2700000   4.4530000  -3.1600000  -4.3430000
   4.7180000  -2.9680000  -3.3030000   5.3020000  -3.5650000  -4.8940000
   3.3070000  -4.1460000  -4.1970000   2.4150000  -4.1440000  -5.0690000
   3.2480000  -4.8740000  -3.0890000   4.0250000  -4.6160000  -2.4970000
   2.2600000  -5.8340000  -2.7400000   1.3290000  -5.3340000  -3.0070000
   2.3340000  -6.1680000  -1.2190000   3.3760000  -5.9210000  -0.5910000
   2.3530000  -7.0990000  -3.6270000   2.3030000  -6.7730000  -4.6660000
   3.3420000  -7.5310000  -3.4760000   1.3930000  -8.3010000  -3.3790000
   0.0070000  -8.1840000  -3.6480000  -0.2950000  -7.2380000  -4.0730000
   1.9390000  -9.4430000  -2.7970000   2.9990000  -9.5660000  -2.6370000
  -0.8030000  -9.3100000  -3.4710000  -1.8470000  -9.2960000  -3.7470000
   1.1010000 -10.5070000  -2.4870000   1.4760000 -11.4390000  -2.0920000
  -0.2800000 -10.4460000  -2.8010000  -1.1850000 -11.4740000  -2.4920000
  -0.6380000 -12.1800000  -2.1400000   1.1570000  -6.5950000  -0.6570000
   0.3800000  -6.7430000  -1.2850000   1.1150000  -7.0760000   0.6890000
   2.0010000  -7.6780000   0.8900000   0.9660000  -6.2620000   1.3980000
  -0.1010000  -8.0340000   0.9920000  -0.6040000  -8.6890000   0.0680000
  -0.4810000  -8.0070000   2.2900000  -0.0500000  -7.2890000   2.8540000
  -1.5000000  -8.8820000   2.9450000  -2.4330000  -8.7690000   2.3930000
  -1.6850000  -8.4760000   4.3440000  -1.4560000  -9.2390000   5.2840000
  -1.0870000 -10.3570000   2.7030000  -1.7660000 -11.0900000   3.1380000
  -0.9960000 -10.5560000   1.6360000   0.1610000 -10.5330000   3.2980000
   0.0220000 -10.1400000   4.1620000  -2.2390000  -7.3660000   4.5340000
   0.2020000   2.7020000   1.5580000   0.0160000   2.0230000   0.3160000
  -0.2080000   0.6670000   0.2960000  -1.3660000   0.0930000   0.8230000
  -1.5410000  -1.2810000   0.7790000  -0.5650000  -2.0980000   0.2160000
  -0.7450000  -3.5880000   0.1530000  -0.5270000  -4.2330000   1.1510000
  -1.1420000  -4.2920000  -1.0910000  -0.7280000  -3.8480000  -2.3400000
  -1.1440000  -4.5040000  -3.4830000  -1.9300000  -5.6370000  -3.4040000
  -2.3610000  -6.0790000  -2.1650000  -1.9870000  -5.3990000  -1.0050000
   0.5830000  -1.5130000  -0.3160000   1.5330000  -2.3030000  -0.8920000
   0.7500000  -0.1340000  -0.2720000   0.0114031   2.0062187   2.3883982
   1.2351867   3.0741843   1.6212776  -0.4972779   3.5487623   1.6212776
  -2.1401114   0.7316015   1.2734882  -2.4570983  -1.7287466   1.1916584
  -0.0673862  -2.9720820  -2.4197314  -0.8451207  -4.1186345  -4.4689841
  -2.2107761  -6.1828279  -4.3168180  -3.0014102  -6.9705632  -2.0943616
  -2.3575085  -5.7349655  -0.0252803   2.3513452  -1.8958173  -1.2722806
   1.6581346   0.3190963  -0.6962586
