
  670  0.0000000e+00
   7.6500000  21.5600000  -8.4100000   8.3900000  20.8700000  -8.2900000
   7.9500000  22.5200000  -8.3000000   6.8900000  21.4100000  -7.7700000
   7.2300000  21.4700000  -9.8400000   6.6600000  22.3300000 -10.1800000
   6.3100000  20.2700000 -10.0200000   6.3900000  19.2300000  -9.4000000
   8.4400000  21.2500000 -10.8100000   7.9400000  21.4000000 -11.7700000
   8.9800000  20.3100000 -10.6900000   9.5600000  22.2600000 -10.6700000
  10.8800000  21.9100000 -10.3100000  11.1600000  20.9100000  -9.9800000
   9.3400000  23.5900000 -10.9500000   8.3700000  23.8700000 -11.3300000
  11.9100000  22.8700000 -10.1100000  12.9300000  22.6200000  -9.8300000
  10.3300000  24.5900000 -10.7600000  10.2600000  25.6400000 -11.0000000
  11.5900000  24.2400000 -10.3500000  12.5500000  25.1900000 -10.1200000
  12.2500000  26.0400000 -10.4600000   5.3700000  20.4600000 -10.9900000
   5.4400000  21.3500000 -11.4700000   4.2200000  19.5500000 -11.3500000
   3.5200000  19.5300000 -10.5200000   4.7600000  18.0600000 -11.5100000
   4.1400000  17.1900000 -10.9300000   3.5200000  19.9900000 -12.5900000
   4.3300000  19.9800000 -13.3200000   2.8700000  21.4000000 -12.5300000
   3.6700000  22.1100000 -12.3500000   2.5200000  21.6600000 -13.5300000
   2.4600000  18.9300000 -13.0500000   2.0600000  18.4100000 -12.1800000
   2.9200000  18.1900000 -13.7000000   1.6800000  19.4500000 -13.6000000
   1.8400000  21.8000000 -11.4700000   1.6800000  22.8500000 -11.7600000
   2.2900000  21.7500000 -10.4800000   0.9400000  21.1900000 -11.6200000
   5.9200000  17.7900000 -12.1900000   6.3600000  18.6000000 -12.6000000
   6.5300000  16.4200000 -12.2500000   5.7800000  15.8100000 -12.7600000
   6.8100000  15.8000000 -10.9200000   6.1700000  14.7900000 -10.6400000
   7.8100000  16.5200000 -13.1900000   8.1900000  15.4900000 -13.1700000
   7.6300000  16.8500000 -14.2100000   8.8500000  17.4900000 -12.6300000
   8.5700000  18.7100000 -12.5400000  10.0200000  17.0000000 -12.1800000
  10.6100000  17.6300000 -11.6600000  10.2600000  16.0300000 -12.2900000
   7.4800000  16.5700000 -10.0600000   7.7800000  17.4800000 -10.3900000
   7.8100000  16.2200000  -8.6300000   8.0400000  15.1600000  -8.7100000
   6.6500000  16.1200000  -7.7500000   6.6700000  15.3600000  -6.7800000
   9.0300000  16.9600000  -8.1500000   9.7000000  16.9600000  -9.0200000
   9.6100000  16.4800000  -7.3600000   8.7000000  18.3700000  -7.5900000
   9.3200000  19.3600000  -8.0600000   7.8200000  18.4700000  -6.6900000
   5.6500000  16.9500000  -7.9600000   5.7800000  17.6400000  -8.6800000
   4.3200000  16.7700000  -7.3300000   4.3000000  16.8100000  -6.2400000
   3.6400000  15.4500000  -7.6500000   3.4100000  14.6200000  -6.7900000
   3.3800000  17.9300000  -7.7800000   3.3000000  17.9000000  -8.8600000
   2.4300000  17.7800000  -7.2700000   3.7400000  19.1600000  -7.1900000
   4.0300000  19.5800000  -8.0000000   3.4100000  15.2000000  -8.9600000
   3.6500000  15.8900000  -9.6600000   2.8400000  13.9500000  -9.4000000
   1.8100000  13.8800000  -9.0600000   3.5900000  12.7500000  -8.9400000
   2.9800000  11.9600000  -8.2900000   2.6800000  13.8900000 -10.9400000
   1.9500000  14.6200000 -11.3000000   3.6500000  14.1400000 -11.3700000
   2.2600000  12.5300000 -11.3300000   1.0500000  11.9800000 -10.8400000
   0.4000000  12.7200000 -10.3800000   3.2400000  11.7000000 -12.0000000
   4.2400000  12.0200000 -12.2300000   0.7700000  10.6600000 -11.0600000
  -0.1300000  10.2500000 -10.6100000   2.8700000  10.3400000 -12.2100000
   3.6300000   9.6700000 -12.5800000   1.6500000   9.8200000 -11.8000000
   1.5700000   8.7500000 -11.8000000   4.9000000  12.7300000  -9.0600000
   5.3300000  13.3400000  -9.7400000   5.7600000  11.6800000  -8.5800000
   5.5700000  10.7400000  -9.1000000   5.5600000  11.3000000  -7.1000000
   5.3000000  10.1600000  -6.7800000   7.2300000  12.0300000  -8.9400000
   7.3400000  13.1000000  -8.7400000   7.4100000  11.9100000 -10.5100000
   7.2500000  10.8800000 -10.8300000   6.6500000  12.5100000 -11.0100000
   8.3200000  11.2700000  -8.1600000   8.3300000  11.4400000  -7.0900000
   8.2100000  10.2100000  -8.4100000   9.2500000  11.3700000  -8.7200000
   8.8300000  12.3400000 -11.0700000   9.5600000  11.6000000 -10.7300000
   9.2600000  13.2500000 -10.6500000   8.7900000  12.3500000 -12.1600000
   5.4200000  12.3200000  -6.2100000   5.3000000  13.2300000  -6.6200000
   5.1500000  12.2400000  -4.8100000   5.8900000  11.5400000  -4.4300000
   3.7400000  11.7500000  -4.3600000   3.6400000  10.8100000  -3.6100000
   5.5500000  13.5800000  -4.1500000   6.4500000  13.9900000  -4.6100000
   4.7900000  14.3500000  -4.3400000   5.7700000  13.6800000  -2.6100000
   6.5300000  12.9300000  -2.3800000   4.8800000  13.3100000  -2.1100000
   6.0800000  15.1500000  -2.2200000   6.8300000  15.6100000  -2.8600000
   6.4300000  15.2500000  -1.2000000   4.7500000  16.0000000  -2.3400000
   4.4900000  16.1900000  -3.3800000   3.9600000  15.4600000  -1.8100000
   5.0300000  17.2200000  -1.7400000   5.6900000  17.1700000  -0.9700000
   5.3400000  17.9500000  -2.3700000   4.2300000  17.5700000  -1.2300000
   2.6800000  12.3700000  -4.8600000   2.7400000  13.2100000  -5.4200000
   1.3600000  11.8100000  -4.7000000   1.2700000  11.7300000  -3.6200000
   1.1900000  10.3600000  -5.1500000   0.6400000   9.4800000  -4.4200000
   0.1700000  12.7200000  -5.1900000   0.2700000  13.6700000  -4.6700000
  -1.2500000  12.1800000  -4.7800000  -2.0100000  12.9500000  -4.9200000
  -1.7200000  11.4400000  -5.4300000   0.1900000  13.0400000  -6.7000000
   0.6400000  12.2400000  -7.2800000  -0.8000000  13.3700000  -6.9900000
   0.8700000  13.8500000  -6.9700000  -1.4700000  11.8400000  -3.3100000
  -2.4900000  11.4600000  -3.2400000  -1.2900000  12.7100000  -2.6800000
  -0.8100000  11.0600000  -2.9400000   1.8600000   9.9200000  -6.2400000
   2.2800000  10.6300000  -6.8300000   1.7700000   8.5200000  -6.7200000
   0.7100000   8.2900000  -6.7600000   2.5000000   7.5000000  -5.7700000
   2.0800000   6.3900000  -5.4500000   2.3100000   8.5400000  -8.1300000
   1.7600000   9.2800000  -8.7100000   3.3700000   8.8000000  -8.0900000
   2.1700000   7.1900000  -8.8900000   1.1200000   6.5500000  -8.8900000
   3.2600000   6.7200000  -9.4000000   3.3500000   5.7700000  -9.7500000
   4.0600000   7.3200000  -9.2700000   3.6500000   7.9200000  -5.3600000
   3.9600000   8.8100000  -5.7100000   4.5400000   7.2200000  -4.3500000
   4.7500000   6.1800000  -4.6200000   3.8400000   7.0900000  -3.0100000
   3.9900000   6.0400000  -2.3400000   5.8900000   7.9500000  -4.1000000
   6.3500000   7.9400000  -5.0800000   5.6400000   8.9800000  -3.8300000
   6.7900000   7.3600000  -3.0700000   7.3800000   6.0900000  -3.3100000
   7.2600000   5.5700000  -4.2500000   6.9200000   8.0200000  -1.8300000
   6.4300000   8.9600000  -1.6000000   8.0400000   5.4300000  -2.2500000
   8.2600000   4.4200000  -2.5600000   7.6100000   7.3300000  -0.8100000
   7.6900000   7.7200000   0.2000000   8.2100000   6.0500000  -1.0000000
   8.8200000   5.4100000   0.0600000   9.3500000   6.0900000   0.4800000
   3.1700000   8.1200000  -2.5700000   3.1800000   8.9800000  -3.0900000
   2.2900000   8.1600000  -1.3500000   2.8800000   7.8000000  -0.5100000
   1.1500000   7.1100000  -1.5100000   0.9000000   6.2500000  -0.6700000
   1.7100000   9.5700000  -1.0400000   1.0400000   9.9500000  -1.8100000
   2.5400000  10.2500000  -0.8800000   0.8100000   9.6600000   0.2400000
  -0.1100000   9.0700000   0.1400000   1.5700000   9.1800000   1.5200000
   1.6400000   8.1000000   1.6200000   1.2000000   9.5400000   2.4800000
   2.5900000   9.5800000   1.5800000   0.2900000  11.0500000   0.5100000
  -0.0100000  11.0700000   1.5600000   1.0600000  11.7600000   0.2100000
  -0.5800000  11.2100000  -0.1300000   0.5200000   7.1000000  -2.7000000
   0.7300000   7.8600000  -3.3400000  -0.4100000   6.0500000  -3.0900000
  -1.2700000   6.0600000  -2.4200000   0.3000000   4.6200000  -2.9700000
  -0.3600000   3.7200000  -2.4900000  -1.1200000   6.3800000  -4.4500000
  -0.4700000   6.7200000  -5.2600000  -2.1300000   7.4500000  -4.1800000
  -1.6700000   8.2900000  -3.6700000  -2.9200000   7.0700000  -3.5300000
  -1.9900000   5.1300000  -4.9300000  -2.3700000   5.3300000  -5.9400000
  -2.8700000   4.8800000  -4.3500000  -1.3200000   4.2700000  -4.9400000
  -2.8400000   7.9200000  -5.4400000  -3.3600000   8.8300000  -5.1600000
  -3.4800000   7.2300000  -5.9900000  -2.0500000   8.2900000  -6.1000000
   1.5300000   4.3400000  -3.4300000   2.0100000   5.0900000  -3.9100000
   2.0000000   2.9600000  -3.5000000   1.1400000   2.3200000  -3.7000000
   2.5100000   2.4100000  -2.1500000   2.2500000   1.2600000  -1.7400000
   3.1600000   2.6300000  -4.5000000   3.4400000   1.5800000  -4.4000000
   3.9900000   3.2900000  -4.2400000   2.5700000   2.8100000  -5.8800000
   1.4000000   2.5100000  -6.1800000   3.4400000   3.1800000  -6.8100000
   4.2200000   3.7200000  -6.4600000   3.1800000   3.4000000  -7.7600000
   3.2100000   3.2700000  -1.4100000   3.1700000   4.2400000  -1.7000000
   3.4700000   3.1500000   0.0700000   4.1600000   2.3300000   0.2800000
   2.2100000   2.6700000   0.7800000   2.2400000   1.7700000   1.6400000
   3.9600000   4.5000000   0.6200000   4.6700000   4.8900000  -0.1100000
   3.1400000   5.2200000   0.6600000   4.6600000   4.5100000   1.9900000
   5.4200000   3.7300000   1.9800000   3.9000000   4.3200000   2.7500000
   5.3600000   5.8400000   2.2300000   4.7900000   6.6900000   1.8600000
   6.3400000   5.8700000   1.7600000   5.5100000   5.9600000   3.7900000
   4.5800000   5.7000000   4.2800000   6.1800000   5.1500000   4.0700000
   6.1200000   7.2100000   4.1800000   5.5500000   8.0000000   3.9100000
   6.2400000   7.2500000   5.1800000   7.0600000   7.2800000   3.8400000
   1.0400000   3.2500000   0.4700000   1.0500000   3.9900000  -0.2100000
  -0.2700000   2.8600000   1.0700000  -0.1100000   2.8700000   2.1500000
  -0.7100000   1.5100000   0.5600000  -0.9600000   0.5300000   1.2300000
  -1.3800000   3.8500000   0.8200000  -2.3500000   3.3700000   0.8800000
  -1.3800000   4.2000000  -0.2200000  -1.2300000   5.0600000   1.7200000
  -0.2100000   5.4500000   1.6700000  -1.3500000   4.7000000   2.7400000
  -2.2700000   6.2600000   1.3800000  -2.2800000   6.2600000   0.2900000
  -3.2800000   6.0200000   1.7000000  -2.0500000   7.6300000   2.0300000
  -2.8300000   8.3000000   1.6800000  -1.1300000   8.0600000   1.6500000
  -2.0400000   7.4500000   3.4700000  -1.1500000   7.1300000   3.8400000
  -2.2200000   8.3200000   3.9500000  -2.7500000   6.7900000   3.7600000
  -0.8300000   1.3300000  -0.7800000  -0.6100000   2.0800000  -1.4100000
  -1.2600000   0.0900000  -1.3600000  -2.3000000  -0.1500000  -1.1700000
  -0.4300000  -1.0700000  -0.8600000  -0.9600000  -2.1500000  -0.6300000
  -1.1700000   0.3000000  -2.8900000  -1.3400000  -0.7200000  -3.2500000
  -0.2000000   0.6800000  -3.1700000  -2.2900000   1.1400000  -3.5000000
  -3.2300000   0.7300000  -3.1200000  -2.3000000   2.1100000  -3.0000000
  -2.2800000   1.2100000  -5.0100000  -3.0800000   1.9000000  -5.2900000
  -1.3600000   1.6500000  -5.4000000  -2.6000000  -0.1200000  -5.6600000
  -3.5600000  -0.4600000  -5.2500000  -1.8600000  -0.8300000  -5.2900000
  -2.6100000  -0.1200000  -7.1600000  -3.1900000   0.6000000  -7.5600000
  -1.7100000   0.0900000  -7.5700000  -2.9000000  -1.0300000  -7.4900000
   0.8500000  -0.9400000  -0.6100000   1.3600000  -0.0800000  -0.7900000
   1.6800000  -1.9200000  -0.0100000   1.3800000  -2.8600000  -0.4800000
   1.3900000  -2.2000000   1.4600000   1.2000000  -3.3000000   1.8800000
   3.1800000  -1.6300000  -0.3200000   3.4600000  -0.6100000  -0.0500000
   3.8100000  -2.2800000   0.2800000   3.5100000  -1.9200000  -1.7900000
   3.2500000  -3.2100000  -2.3300000   2.7100000  -3.9300000  -1.7400000
   4.2200000  -1.0300000  -2.6000000   4.3900000  -0.0300000  -2.2600000
   3.6600000  -3.5500000  -3.6200000   3.5200000  -4.5600000  -3.9800000
   4.6600000  -1.4100000  -3.8800000   5.3600000  -0.7700000  -4.4100000
   4.4300000  -2.6700000  -4.4200000   4.8500000  -2.9700000  -5.3700000
   1.1600000  -1.1800000   2.2700000   1.4100000  -0.2400000   1.9800000
   0.7800000  -1.2400000   3.7400000   1.4500000  -1.9400000   4.2500000
  -0.6100000  -1.8100000   3.8500000  -0.8200000  -2.6700000   4.7700000
   0.8600000   0.1500000   4.3300000   1.8500000   0.5300000   4.0400000
   0.1100000   0.7500000   3.8100000   0.8000000   0.1000000   5.8700000
   1.4900000  -0.6600000   6.2400000  -0.2200000  -0.1500000   6.1600000
   0.9600000   1.5400000   6.4700000   1.9800000   1.8000000   6.1800000
   0.2100000   2.1900000   6.0100000   0.7800000   1.4300000   7.9800000
   1.5400000   0.8000000   8.4200000  -0.1700000   0.9500000   8.2500000
   0.8400000   2.7800000   8.5500000   0.6700000   2.7600000   9.5400000
   1.7200000   3.2600000   8.3800000   0.1000000   3.3500000   8.1600000
  -1.5500000  -1.6400000   2.9000000  -1.3300000  -0.9500000   2.1900000
  -2.8600000  -2.5000000   2.8100000  -3.3300000  -2.3900000   3.7900000
  -2.5700000  -3.9900000   2.3900000  -3.2300000  -4.8700000   2.9000000
  -3.8500000  -1.8800000   1.7300000  -3.4100000  -1.8700000   0.7300000
  -4.2300000  -0.4400000   2.0200000  -4.9500000  -0.3500000   2.8300000
  -3.3000000   0.1100000   2.1800000  -5.0700000  -2.6900000   1.5200000
  -5.7500000  -2.7800000   2.3700000  -5.6600000  -2.2000000   0.7500000
  -4.7000000  -3.6400000   1.1200000  -4.8500000   0.4100000   0.8800000
  -5.8900000   0.1300000   0.6700000  -4.8300000   1.4600000   1.1400000
  -4.3200000   0.3000000  -0.0700000  -1.4900000  -4.2600000   1.5700000
  -0.8000000  -3.5400000   1.3700000  -1.2600000  -5.6500000   1.1500000
  -2.2700000  -6.0200000   1.0300000  -0.5600000  -6.4100000   2.2500000
  -0.9600000  -7.5300000   2.5500000  -0.5000000  -5.6100000  -0.1800000
  -1.1400000  -5.1700000  -0.9500000   0.1900000  -4.8100000   0.0900000
  -0.0300000  -6.9500000  -0.7200000   0.5900000  -7.5300000  -0.0300000
  -1.1900000  -7.8900000  -1.1200000  -1.7900000  -8.1400000  -0.2500000
  -0.7600000  -8.8100000  -1.5000000  -1.8000000  -7.4300000  -1.9000000
   0.7600000  -6.6700000  -2.0100000   0.1800000  -6.1600000  -2.7800000
   1.1100000  -7.6000000  -2.4500000   1.6100000  -6.0200000  -1.7800000
   0.2800000  -5.7900000   3.0600000   0.6600000  -4.9400000   2.6700000
   0.7700000  -6.2700000   4.4200000   1.3100000  -7.1700000   4.1600000
  -0.3600000  -6.8100000   5.3000000  -0.2700000  -7.9300000   5.8400000
   1.5700000  -5.2400000   5.0700000   2.4200000  -4.9300000   4.4600000
   1.0300000  -4.3000000   5.1900000   2.1700000  -5.7200000   6.3500000
   2.9200000  -6.4500000   6.0500000   1.3900000  -6.1900000   6.9600000
   2.8800000  -4.5700000   7.0500000   3.1800000  -3.7100000   6.4600000
   2.1800000  -4.1600000   7.7700000   4.0900000  -5.1500000   7.7800000
   3.9000000  -6.1200000   8.2500000   4.8200000  -5.4400000   7.0300000
   4.6500000  -4.1400000   8.7100000   5.3500000  -4.6600000   9.2200000
   5.2000000  -3.4100000   8.2800000   3.9500000  -3.7800000   9.3400000
  -1.4100000  -6.0200000   5.5800000  -1.4200000  -5.1700000   5.0400000
  -2.4500000  -6.3500000   6.5000000  -2.0700000  -6.8700000   7.3900000
  -3.4000000  -7.3500000   5.8400000  -3.7200000  -8.2800000   6.5600000
  -3.2600000  -5.1700000   7.1000000  -3.8000000  -4.7300000   6.2500000
  -2.4100000  -4.1300000   7.7600000  -1.8200000  -3.6200000   7.0000000
  -3.0400000  -3.3700000   8.2200000  -4.3800000  -5.4500000   8.1400000
  -3.9400000  -6.0100000   8.9600000  -5.1600000  -6.0700000   7.7000000
  -4.7800000  -4.4900000   8.4800000  -1.3700000  -4.7300000   8.7900000
  -0.7600000  -3.9000000   9.1400000  -1.8600000  -5.1600000   9.6600000
  -0.6400000  -5.4400000   8.4200000  -3.7400000  -7.3300000   4.5600000
  -3.2800000  -6.5600000   4.0900000  -4.3600000  -8.4100000   3.8100000
  -5.3600000  -8.4800000   4.2500000  -3.6300000  -9.7500000   3.9800000
  -4.2600000 -10.6800000   4.4400000  -4.5300000  -8.0800000   2.3200000
  -4.9000000  -7.0600000   2.2900000  -3.5400000  -8.0900000   1.8700000
  -5.4800000  -9.0200000   1.5200000  -6.8600000  -9.0100000   1.5900000
  -7.4400000  -8.3500000   2.2300000  -5.1700000 -10.1800000   0.7400000
  -7.4500000 -10.0400000   0.8500000  -8.4400000 -10.2500000   0.8500000
  -6.4100000 -10.7800000   0.3300000  -4.0000000 -10.8700000   0.3400000
  -3.0100000 -10.4700000   0.4800000  -6.4500000 -11.9700000  -0.3800000
  -7.3300000 -12.5100000  -0.6900000  -4.0700000 -11.9100000  -0.5700000
  -3.1600000 -12.3400000  -0.9400000  -5.2700000 -12.5300000  -0.8300000
  -5.3400000 -13.4100000  -1.4600000  -2.3000000  -9.8200000   3.7100000
  -1.8700000  -8.9200000   3.5300000  -1.4700000 -11.0000000   3.8900000
  -2.0200000 -11.8100000   3.4200000  -1.2300000 -11.5200000   5.3700000
  -1.1600000 -12.7200000   5.5300000  -0.0900000 -10.7200000   3.2000000
   0.6200000 -11.4900000   3.5000000   0.2400000  -9.7200000   3.4700000
  -0.1200000 -10.7600000   1.6600000  -0.9400000 -10.1700000   1.2500000
  -0.3500000 -12.2000000   1.2200000  -1.3800000 -12.4900000   1.4200000
  -0.2400000 -12.2600000   0.1300000   0.4600000 -12.7900000   1.6400000
   1.2200000 -10.3800000   1.0900000   1.2700000 -10.3900000   0.0000000
   1.9900000 -11.0100000   1.5300000   1.3200000  -9.3200000   1.3100000
  -1.2400000 -10.7200000   6.4400000  -1.2400000  -9.7400000   6.2200000
  -1.2800000 -11.0600000   7.8200000  -0.5700000 -11.8800000   7.9500000
  -2.6100000 -11.6300000   8.2600000  -2.6400000 -12.4900000   9.1600000
  -0.9700000  -9.9300000   8.7800000  -1.5100000  -9.0600000   8.4100000
  -1.2000000 -10.1700000   9.8200000   0.5500000  -9.5600000   8.8100000
   0.9000000  -9.6100000   7.7800000   1.4500000 -10.4700000   9.5700000
   1.3900000 -10.3100000  10.6500000   1.2200000 -11.5000000   9.3100000
   2.4800000 -10.2600000   9.2900000   0.8100000  -8.1300000   9.2600000
   0.5300000  -8.0800000  10.3100000   0.0700000  -7.5100000   8.7600000
   1.8200000  -7.8100000   9.0200000  -3.7700000 -11.1300000   7.7700000
  -3.6800000 -10.3500000   7.1400000  -5.1100000 -11.7300000   8.1200000
  -5.0700000 -11.7500000   9.2100000  -5.2600000 -13.1600000   7.5000000
  -5.6400000 -14.1700000   8.0900000  -6.1500000 -10.7500000   7.6400000
  -7.1300000 -11.2300000   7.6700000  -5.8700000 -10.4900000   6.6200000
  -6.3400000  -9.5000000   8.5700000  -5.3600000  -9.0900000   8.8300000
  -6.8600000  -8.7600000   7.9600000  -7.1800000  -9.7200000   9.7900000
  -7.9500000  -8.8500000  10.2500000  -7.0500000 -10.8300000  10.3000000
  -4.8600000 -13.1700000   6.2300000  -4.4500000 -12.3800000   5.7600000
  -4.8200000 -14.3800000   5.4200000  -5.8000000 -14.8600000   5.4000000
  -3.8900000 -15.4800000   6.0200000  -4.2000000 -16.6900000   6.1100000
  -4.3100000 -14.0300000   4.0200000  -3.4400000 -13.3800000   4.0900000
  -5.3000000 -13.2300000   3.2000000  -5.6400000 -12.4200000   3.8400000
  -4.7500000 -12.8800000   2.3300000  -3.8500000 -15.1800000   3.1300000
  -3.4000000 -14.7900000   2.2300000  -3.0500000 -15.7600000   3.5900000
  -4.6700000 -15.8400000   2.8400000  -6.5800000 -13.9900000   2.6200000
  -6.3300000 -14.4800000   1.6800000  -7.3100000 -13.2300000   2.3300000
  -7.0800000 -14.7000000   3.2800000  -2.8500000 -15.0000000   6.7200000
  -2.6600000 -14.0100000   6.7000000  -1.9200000 -15.9000000   7.4200000
  -1.6100000 -16.7600000   6.8200000  -2.5400000 -16.4500000   8.7300000
  -2.4800000 -17.6700000   8.9200000  -0.6200000 -15.2300000   7.7900000
  -0.0900000 -15.8500000   8.5200000  -0.8200000 -14.2600000   8.2500000
   0.1000000 -15.1000000   6.6000000  -0.2100000 -14.3500000   6.0900000
  -3.2000000 -15.6500000   9.4200000  -3.1700000 -14.7000000   9.0800000
  -4.1000000 -15.9900000  10.5400000  -3.4400000 -16.4500000  11.2800000
  -5.1700000 -16.9500000  10.1900000  -5.4000000 -17.9100000  10.9000000
  -4.7200000 -14.7100000  11.2600000  -3.8900000 -14.1400000  11.6600000
  -5.1300000 -14.0800000  10.4700000  -5.8000000 -15.0900000  12.2600000
  -5.4800000 -15.7700000  13.4400000  -4.4400000 -15.9300000  13.7100000
  -7.1200000 -14.8000000  11.9600000  -7.3800000 -14.2700000  11.0600000
  -6.5300000 -16.2500000  14.2600000  -6.3200000 -16.8000000  15.1600000
  -8.1300000 -15.1200000  12.8600000  -9.1600000 -14.9000000  12.6000000
  -7.7800000 -15.7900000  14.0300000  -8.5100000 -15.9200000  14.8100000
  -5.8200000 -16.7600000   9.0400000  -5.6300000 -15.9600000   8.4500000
  -6.8300000 -17.6600000   8.5100000  -7.5700000 -17.8600000   9.3000000
  -6.4600000 -19.0500000   7.9900000  -7.1900000 -20.0200000   8.1800000
  -7.6000000 -16.9500000   7.4100000  -8.1100000 -17.6400000   6.7500000
  -7.0100000 -16.2700000   6.7900000  -8.6000000 -15.9200000   7.9700000
  -8.2100000 -15.3800000   8.8400000  -9.8800000 -16.5200000   8.4800000
 -10.5600000 -16.4900000   7.6300000  -9.7900000 -17.5200000   8.8900000
 -10.1900000 -15.7700000   9.2200000  -8.8300000 -14.7900000   7.0100000
  -9.6800000 -14.1800000   7.3100000  -7.9800000 -14.1100000   6.9100000
  -8.9000000 -15.2200000   6.0200000  -5.2800000 -19.1600000   7.3800000
  -4.8800000 -18.2700000   7.1300000  -4.5800000 -20.4000000   7.0400000
  -5.2700000 -20.9600000   6.4100000  -4.1700000 -21.1400000   8.2900000
  -3.9800000 -22.3400000   8.2000000  -3.2900000 -20.2300000   6.1800000
  -2.6400000 -21.1000000   6.0900000  -2.7400000 -19.4100000   6.6500000
  -3.4500000 -19.7100000   4.7300000  -4.4400000 -20.0400000   3.8200000
  -5.2200000 -20.7600000   3.9800000  -2.5900000 -18.7700000   3.9800000
  -4.2000000 -19.4000000   2.6600000  -4.8400000 -19.4500000   1.8800000
  -3.0400000 -18.6300000   2.6500000  -1.3100000 -18.1400000   4.2800000
  -0.7800000 -18.3200000   5.2100000  -2.3600000 -17.8500000   1.7100000
  -2.8700000 -17.7900000   0.7600000  -0.6700000 -17.3400000   3.3200000
   0.2400000 -16.8300000   3.6000000  -1.1100000 -17.2400000   1.9600000
  -0.6400000 -16.6800000   1.1700000  -3.8300000 -20.4400000   9.4000000
  -3.8100000 -19.4300000   9.3500000  -3.1700000 -20.9400000  10.6300000
  -2.4500000 -21.7000000  10.3200000  -4.2600000 -21.5100000  11.5700000
  -3.8700000 -22.2600000  12.3800000  -2.4000000 -19.9200000  11.4400000
  -1.7300000 -19.3200000  10.8300000  -3.1200000 -19.2200000  11.8700000
  -1.5800000 -20.4500000  12.4800000  -2.1200000 -20.5100000  13.2700000
  -5.5600000 -21.1600000  11.4300000  -5.8100000 -20.6200000  10.6100000
  -6.5700000 -21.5300000  12.3600000  -6.1600000 -21.9700000  13.2700000
  -7.5000000 -22.4800000  11.6500000  -8.6700000 -22.0600000  11.3900000
  -7.3200000 -20.3400000  12.9600000  -7.7300000 -20.7500000  13.8800000
  -8.1600000 -20.1000000  12.3100000  -6.5000000 -19.2000000  13.1100000
  -6.4800000 -18.5600000  12.3900000  -7.0500000 -23.6000000  11.2700000
  -7.0060000  -5.0140000   5.6090000  -7.3650000  -3.6580000   5.0610000
  -7.7350000  -3.7100000   3.6390000  -8.0710000  -2.3980000   3.0310000
  -8.4380000  -2.4570000   1.5640000  -9.0840000  -1.1720000   1.0750000
  -8.0390000  -0.0420000   1.0650000  -7.2770000  -2.6040000   0.8020000
  -6.9840000  -3.7780000   0.2190000  -7.6800000  -4.7560000   0.3650000
  -5.7430000  -3.6870000  -0.5850000  -5.2430000  -4.8210000  -1.2100000
  -4.0290000  -4.7680000  -2.0110000  -3.0080000  -3.8750000  -1.7200000
  -1.8690000  -3.8100000  -2.4910000  -1.7170000  -4.6400000  -3.5780000
  -0.6210000  -4.6230000  -4.4000000   0.5140000  -3.8690000  -4.0120000
  -2.7430000  -5.5490000  -3.8710000  -3.8740000  -5.6170000  -3.0870000
  -7.0151774  -4.9793356   6.7084154  -7.7385313  -5.7564277   5.2594302
  -6.0020669  -5.2967001   5.2594302  -8.2155511  -3.2592171   5.6333067
  -6.4792842  -3.0124229   5.1544760  -6.8889070  -4.1380817   3.0814404
  -8.6488054  -4.3195514   3.5806315  -8.9240001  -1.9737679   3.5809254
  -7.1625062  -1.7816267   3.0997238  -9.1380090  -3.2983768   1.4541254
  -9.4718073  -1.3214131   0.0565300  -9.9112458  -0.8995371   1.7468841
  -7.7854832   0.2321378   2.0996872  -7.1329409  -0.3850777   0.5440830
  -8.4517418   0.8345214   0.5440830  -5.2199250  -2.7246377  -0.6862487
  -5.7742395  -5.7776603  -1.0978140  -3.1105993  -3.2041215  -0.8543237
  -1.0764575  -3.0908365  -2.2366768   0.5711640  -3.8310250  -2.9141429
   1.4230114  -4.3433950  -4.4103060   0.4290440  -2.8471709  -4.4103060
  -2.6438331  -6.2174056  -4.7389861  -4.6578336  -6.3525764  -3.3205215
