
  371  0.0000000e+00
  -3.0030000   6.6690000   1.7670000  -2.2360000   7.3250000   1.8080000
  -2.9530000   6.2190000   0.8640000  -3.8990000   7.1330000   1.8100000
  -2.8370000   5.5860000   2.7630000  -1.9670000   4.9440000   2.6210000
  -4.0150000   4.6200000   2.6940000  -5.1490000   5.1250000   2.4830000
  -2.6570000   6.1260000   4.1670000  -3.5870000   6.5610000   4.5320000
  -2.3160000   5.2490000   4.7160000  -1.5710000   7.2010000   4.3050000
  -0.6250000   7.0070000   3.7990000  -1.7880000   8.0890000   3.7120000
  -1.3200000   7.5060000   5.8120000  -1.0450000   6.6340000   6.4040000
  -2.2270000   7.9180000   6.2540000  -0.2100000   8.5380000   6.0550000
   0.2130000   8.8750000   5.2030000   0.3460000   8.9270000   7.1740000
  -0.1060000   8.6340000   8.4120000   0.3720000   9.0040000   9.2210000
  -0.8700000   7.9970000   8.5840000   1.4050000   9.7020000   7.1470000
   1.9780000   9.8600000   7.9640000   1.7360000  10.0140000   6.2460000
  -3.7730000   3.3070000   2.8210000  -2.8530000   2.9190000   2.9800000
  -4.8660000   2.3490000   3.0150000  -5.6530000   2.7330000   3.6640000
  -5.2810000   2.1790000   2.0210000  -4.5500000   0.9450000   3.6270000
  -3.4120000   0.6400000   3.9760000  -5.5320000   0.0840000   3.7560000
  -6.4150000   0.3860000   3.3690000  -5.5780000  -1.1610000   4.5800000
  -5.1270000  -0.9650000   5.5530000  -4.7830000  -2.3750000   4.0070000
  -5.2000000  -3.5040000   4.3530000  -7.0640000  -1.4820000   4.9380000
  -7.0280000  -2.3530000   5.5920000  -7.5460000  -0.6740000   5.4890000
  -7.9100000  -1.9290000   3.6670000  -7.7070000  -2.9750000   3.4390000
  -7.5100000  -1.3100000   2.8640000  -9.4060000  -1.7380000   3.8660000
  -9.9700000  -1.7400000   5.0270000 -10.1290000  -1.8060000   2.8440000
  -3.7390000  -2.2090000   3.1540000  -3.2790000  -1.3140000   3.0710000
  -2.9060000  -3.2600000   2.5620000  -3.1930000  -4.2170000   2.9970000
  -2.8660000  -3.2960000   1.4730000  -1.4250000  -3.0690000   2.7750000
  -0.9260000  -1.9460000   2.6250000  -0.6750000  -4.1690000   3.1670000
  -1.1450000  -5.0280000   3.4130000   0.7890000  -4.1920000   3.3300000
   1.2600000  -3.6140000   2.5350000   1.0930000  -5.2380000   3.3250000
   1.2560000  -3.6100000   4.6580000   0.4390000  -3.4550000   5.5820000
   2.5160000  -3.1310000   4.6720000   3.1190000  -3.3510000   3.8920000
   3.1580000  -2.4110000   5.8070000   2.4160000  -2.2030000   6.5780000
   3.7990000  -1.0310000   5.5580000   4.9380000  -0.9760000   5.0790000
   4.1390000  -3.3980000   6.5740000   4.9580000  -3.5100000   5.8630000
   4.4690000  -2.8840000   7.4770000   3.5480000  -4.7420000   6.9720000
   2.8090000  -5.0860000   6.2490000   2.7720000  -4.6120000   8.2520000
   3.3160000  -4.1650000   9.0850000   2.5840000  -5.5920000   8.6920000
   1.8350000  -4.0750000   8.1090000   4.6510000  -5.7520000   7.1730000
   5.5890000  -5.3480000   7.5530000   4.2700000  -6.6290000   7.6970000
   5.0390000  -6.0610000   6.2030000   3.1490000   0.0830000   5.9950000
   2.1560000  -0.0180000   6.1520000   3.7120000   1.3820000   6.0100000
   4.2930000   1.6070000   6.9040000   4.3540000   1.4600000   5.1320000
   2.6440000   2.4170000   5.8550000   1.5010000   2.2540000   6.3390000
   2.9820000   3.5710000   5.2620000   3.9320000   3.7530000   4.9730000
   1.9820000   4.5970000   4.9130000   1.1930000   4.5850000   5.6650000
   1.0870000   4.3080000   3.7040000  -0.0550000   4.6890000   3.7140000
   2.6940000   5.9750000   4.8070000   2.0540000   6.6960000   4.2980000
   3.6250000   5.8780000   4.2490000   3.1320000   6.5680000   6.1400000
   2.7690000   5.9920000   7.1630000   3.7820000   7.5870000   6.0030000
   1.5740000   3.4240000   2.8620000   2.5180000   3.1140000   3.0420000
   0.9320000   2.8350000   1.6760000   1.7240000   2.1740000   1.3240000
   0.7770000   3.6770000   1.0010000  -0.4020000   2.0190000   1.7750000
  -1.1630000   2.2620000   2.6800000  -0.7250000   1.2260000   0.7650000
   0.0230000   1.0940000   0.1000000  -1.9380000   0.4720000   0.5570000
  -1.7020000  -0.4420000   0.0130000  -2.3140000   0.1240000   1.5190000
  -3.1210000   1.1260000  -0.1730000  -2.9600000   2.1000000  -0.8760000
  -4.3110000   0.5140000   0.0220000  -4.2890000  -0.3350000   0.5690000
  -5.5780000   0.8420000  -0.7050000  -5.4240000   0.7240000  -1.7780000
  -6.1630000   2.2870000  -0.5230000  -7.3570000   2.5050000  -0.2470000
  -6.6310000  -0.2440000  -0.4130000  -7.5240000  -0.1060000  -1.0220000
  -6.9280000  -0.2770000   0.6350000  -6.1080000  -1.6160000  -0.8570000
  -6.1570000  -1.9590000  -2.1960000  -6.4140000  -1.2400000  -2.9600000
  -5.8650000  -2.5420000   0.1910000  -6.1030000  -2.2620000   1.2060000
  -5.6950000  -3.2600000  -2.5290000  -5.7210000  -3.5330000  -3.5730000
  -5.4970000  -3.8640000  -0.2140000  -5.3680000  -4.5740000   0.5890000
  -5.3210000  -4.2300000  -1.5280000  -4.9370000  -5.4770000  -1.8330000
  -4.4060000  -5.8970000  -1.1520000  -5.3520000   3.3540000  -0.5860000
  -4.3800000   3.2350000  -0.8360000  -5.8830000   4.7120000  -0.6150000
  -6.6620000   4.8020000  -1.3720000  -6.3790000   5.0380000   0.2990000
  -4.8520000   5.7330000  -0.9230000  -3.6870000   5.5490000  -0.6210000
  -5.2480000   6.8690000  -1.4760000  -6.2420000   6.9670000  -1.6270000
  -4.4060000   8.1250000  -1.3840000  -4.4470000   8.5810000  -0.3950000
  -4.8980000   8.8980000  -1.9760000  -2.9160000   8.0890000  -1.8240000
  -2.6350000   7.5360000  -2.8980000  -1.9580000   8.6040000  -1.0330000
  -2.2020000   9.1370000  -0.2100000  -0.5600000   8.5030000  -1.3020000
  -0.3510000   8.1410000  -2.3090000  -0.0820000   9.4730000  -1.1670000
   0.0930000   7.5570000  -0.3340000  -0.5690000   7.0080000   0.5780000
   1.4170000   7.6170000  -0.3470000   1.8650000   8.2470000  -0.9980000
   2.2690000   7.3330000   0.7680000   1.6630000   7.2310000   1.6680000
   2.8700000   8.2320000   0.9030000   3.1430000   6.0320000   0.8060000
   2.8170000   5.0640000   0.1290000   4.3090000   6.1940000   1.4210000
   4.5130000   7.0950000   1.8290000   5.4660000   5.4080000   1.3930000
   5.7300000   5.0620000   0.3940000   5.4510000   4.0950000   2.2330000
   4.4290000   3.7480000   2.7640000   6.6050000   6.2820000   1.9590000
   7.5350000   5.7670000   1.7190000   6.6210000   7.2670000   1.4920000
   6.4860000   6.4380000   3.3770000   6.7360000   5.6410000   3.8520000
   6.5420000   3.3230000   2.1280000   7.3480000   3.7680000   1.7140000
   6.6360000   2.0000000   2.8050000   6.0470000   2.1150000   3.7150000
   7.6810000   1.8050000   3.0460000   6.2460000   0.7880000   1.9170000
   6.8050000   0.7240000   0.8210000   5.3800000  -0.1120000   2.4650000
   4.9380000  -0.0980000   3.3730000   4.8390000  -1.1690000   1.6240000
   5.1790000  -0.9770000   0.6070000   3.3190000  -1.1680000   1.5540000
   2.7040000  -1.0580000   2.6070000   5.2840000  -2.5630000   2.0430000
   4.9780000  -2.7480000   3.0730000   4.8210000  -3.2240000   1.3110000
   6.8210000  -2.7650000   1.9890000   7.7810000  -2.1000000   2.6750000
   7.5570000  -1.3980000   3.4640000   7.5510000  -3.7730000   1.2340000
   9.0110000  -2.5470000   2.4180000   9.8400000  -2.2620000   2.9190000
   8.8970000  -3.6220000   1.5380000   7.1690000  -4.7350000   0.2270000
   6.2080000  -4.6240000  -0.2530000   9.9170000  -4.4420000   1.0100000
  10.9040000  -4.3300000   1.4330000   8.1810000  -5.4880000  -0.4260000
   8.0280000  -6.1240000  -1.2850000   9.5190000  -5.3730000   0.0270000
  10.2570000  -5.9640000  -0.4960000   2.7460000  -1.3220000   0.3870000
   3.3660000  -1.5940000  -0.3630000   1.3590000  -1.4740000   0.0650000
   0.7040000  -1.3320000   0.9240000   1.0630000  -2.5150000  -0.0680000
   0.8580000  -0.5870000  -1.0440000   1.3020000   0.5670000  -1.0780000
  -0.1110000  -1.0390000  -1.8990000  -0.4680000  -1.9630000  -1.7040000
  -0.6060000  -0.2290000  -3.0290000  -0.7760000   0.7920000  -2.6860000
   0.0910000  -0.2390000  -3.8670000  -2.0040000  -0.5440000  -3.5080000
  -2.8880000  -0.5540000  -2.6660000  -2.2630000  -0.9250000  -4.7660000
  -1.5070000  -0.8870000  -5.4360000  -3.6330000  -1.0780000  -5.3190000
  -3.6340000  -1.9190000  -6.0120000  -4.3770000  -1.3510000  -4.5700000
  -4.0330000   0.2400000  -5.9830000  -3.1390000   0.9820000  -6.4720000
  -5.3080000   0.5600000  -5.8870000  -5.8880000  -0.1550000  -5.4740000
  -5.7500000   1.9500000  -6.1010000  -5.2130000   2.3120000  -6.9780000
  -5.2060000   2.7700000  -4.9910000  -5.7250000   2.6900000  -3.8520000
  -7.2790000   2.0530000  -6.4040000  -7.8490000   1.6930000  -5.5480000
  -7.6050000   1.2430000  -7.6280000  -7.3770000   0.1790000  -7.5710000
  -7.0230000   1.6830000  -8.4380000  -7.6310000   3.5110000  -6.6100000
  -6.9560000   3.9090000  -7.3670000  -8.6850000   3.6150000  -6.8690000
  -7.4290000   4.0430000  -5.6800000  -9.1250000   1.1600000  -7.9730000
  -9.6050000   2.1200000  -8.1610000  -9.3190000   0.6400000  -8.9110000
  -9.7020000   0.6910000  -7.1750000  -4.1910000   3.6120000  -5.2350000
  -3.8720000   3.6030000  -6.1930000  -3.5510000   4.3640000  -4.1370000
  -4.3470000   4.5290000  -3.4100000  -3.2690000   5.3050000  -4.6090000
  -2.2610000   3.6730000  -3.5400000  -1.7580000   2.6170000  -4.0430000
  -1.7140000   4.3470000  -2.5340000  -2.3350000   4.9990000  -2.0760000
  -0.3500000   4.0880000  -1.9490000  -0.2020000   4.8340000  -1.1680000
  -0.2860000   3.1160000  -1.4610000   0.8450000   4.3210000  -2.8920000
   0.6930000   4.2440000  -4.1140000   2.0320000   4.8290000  -2.3900000
   2.1730000   4.9110000  -1.3940000   3.2520000   4.9890000  -3.2300000
   2.9350000   4.7830000  -4.2530000   4.2750000   3.9070000  -2.7500000
   5.4270000   4.0710000  -3.0680000   3.8770000   6.4050000  -3.0490000
   4.4870000   6.4090000  -2.1460000   3.1040000   7.1460000  -2.8440000
   4.8320000   6.8380000  -4.2330000   4.6200000   6.2650000  -5.3490000
   5.6650000   7.7780000  -4.0440000   3.9690000   2.9650000  -1.9070000
   2.9830000   2.8810000  -1.7050000   4.8530000   2.0010000  -1.2980000
   4.2710000   1.8110000  -0.3960000   5.8520000   2.3800000  -1.0800000
   4.9360000   0.6770000  -2.1320000   4.1570000   0.3670000  -3.0030000
   5.7540000  -0.2530000  -1.7600000   6.2220000  -0.0390000  -0.8920000
   6.1630000  -1.5430000  -2.4550000   6.2260000  -1.2940000  -3.5140000
   5.2670000  -2.7820000  -2.2920000   4.6560000  -2.8830000  -1.2190000
   7.6460000  -1.7440000  -1.9610000   7.9490000  -2.7370000  -2.2920000
   7.5450000  -1.9410000  -0.8940000   8.7520000  -0.6650000  -2.2120000
   8.9520000  -0.6850000  -3.2830000   8.3540000   0.3160000  -1.9530000
  10.0380000  -0.9520000  -1.4000000   9.7570000  -0.8280000  -0.3540000
  10.3300000  -2.0000000  -1.4530000  11.2650000  -0.1930000  -1.8420000
  12.1200000  -0.4170000  -1.2040000  11.4660000  -0.4770000  -2.8760000
  11.0240000   1.2870000  -1.6870000  10.7020000   1.4530000  -0.7440000
  11.8690000   1.8120000  -1.8630000  10.3630000   1.6460000  -2.3600000
   5.2250000  -3.6410000  -3.2980000   5.8170000  -3.4960000  -4.1030000
   4.4810000  -4.9290000  -3.2570000   4.7840000  -5.6410000  -4.0250000
   4.7540000  -5.4600000  -2.3450000   3.0450000  -4.7960000  -3.4690000
   2.5200000  -3.6980000  -3.7510000   2.3580000  -5.9260000  -3.4870000
   2.7270000  -6.7090000  -2.9660000   1.1260000  -6.1660000  -4.2320000
   0.8150000  -7.1960000  -4.0590000   1.3040000  -6.1710000  -5.3070000
  -0.1170000  -5.2530000  -3.9680000  -0.2870000  -4.4280000  -3.0650000
  -1.1120000  -5.4330000  -4.8350000  -1.0060000  -6.0350000  -5.6390000
  -2.5470000  -5.1350000  -4.6040000  -2.6800000  -4.1240000  -4.2170000
  -2.8420000  -5.8250000  -3.8140000  -3.3290000  -5.2940000  -5.8840000
  -2.7770000  -5.6410000  -6.9420000  -4.7010000  -5.0700000  -5.8750000
  -5.1000000  -4.9900000  -4.9510000  -5.6450000  -4.9270000  -6.9520000
  -5.0240000  -4.7860000  -7.8370000  -6.4870000  -3.7230000  -6.7950000
  -7.0200000  -3.5770000  -5.6700000  -6.5360000  -6.1420000  -7.2020000
  -6.5680000  -6.3410000  -8.2730000  -7.5830000  -6.0190000  -6.9260000
  -6.2100000  -7.4630000  -6.5360000  -6.8860000  -7.9380000  -5.3800000
  -7.6290000  -7.2840000  -4.9470000  -5.1950000  -8.2920000  -7.0270000
  -4.4910000  -7.9710000  -7.7810000  -6.4670000  -9.0860000  -4.7550000
  -7.0330000  -9.3940000  -3.8890000  -4.8290000  -9.5350000  -6.4100000
  -4.0310000 -10.1370000  -6.8190000  -5.5100000  -9.9500000  -5.2900000
  -5.2600000 -10.8850000  -4.8100000  -6.5980000  -2.9270000  -7.7900000
   5.6360000  -8.6750000   3.1460000   5.3890000  -7.9390000   1.9770000
   4.0790000  -7.6620000   1.6660000   3.0520000  -8.2830000   2.2920000
   1.7590000  -7.9540000   1.9650000   1.4880000  -7.0330000   0.9940000
   0.1000000  -6.6320000   0.6950000  -0.2730000  -5.4610000   0.8910000
  -0.8960000  -7.5930000   0.1710000  -0.5850000  -8.4320000  -0.8750000
  -1.5290000  -9.3180000  -1.3540000  -2.7970000  -9.3410000  -0.8150000
  -3.1200000  -8.4770000   0.2300000  -2.1800000  -7.5840000   0.7080000
   2.5510000  -6.3620000   0.3340000   2.2690000  -5.4530000  -0.5800000
   3.8530000  -6.7170000   0.6780000   5.4256696  -8.0482665   4.0251850
   4.9864974  -9.5625817   3.1645758   6.6894473  -8.9910754   3.1645758
   3.2516437  -9.0466747   3.0581222   0.9271309  -8.4411513   2.4947901
   0.4161427  -8.3964395  -1.3293662  -1.2679267 -10.0085937  -2.1694269
  -3.5513818 -10.0385170  -1.2079098  -4.1254612  -8.5060737   0.6751994
  -2.4438854  -6.8731663   1.5049190   3.0007419  -4.9777263  -1.0477272
   4.7040316  -6.2461094   0.1641837
