
  542  0.0000000e+00
  -2.3750000 -12.7790000   1.7540000  -1.5450000 -12.4380000   1.2900000
  -2.6770000 -13.6100000   1.2660000  -2.2070000 -13.1460000   2.6800000
  -3.4110000 -11.7340000   1.6660000  -4.3150000 -12.0410000   2.1910000
  -3.9490000 -11.5050000   0.2490000  -5.1040000 -11.7160000  -0.0550000
  -2.7910000 -10.4740000   2.3060000  -3.4880000  -9.6640000   2.0910000
  -1.8520000 -10.3000000   1.7810000  -2.5850000 -10.4380000   3.8210000
  -1.9910000  -9.5490000   4.0320000  -2.0880000 -11.3350000   4.1890000
  -3.9410000 -10.3220000   4.4350000  -4.4440000  -9.4240000   4.0770000
  -4.5910000 -11.1550000   4.1700000  -3.8040000 -10.1350000   5.8780000
  -3.5950000  -9.2250000   6.2640000  -4.1930000 -11.0080000   6.8000000
  -4.6350000 -12.1540000   6.4240000  -4.6610000 -12.4330000   5.4540000
  -4.7660000 -12.8240000   7.1690000  -4.0540000 -10.7120000   8.0570000
  -3.6730000  -9.7880000   8.2000000  -4.3920000 -11.2940000   8.8100000
  -3.0730000 -11.0420000  -0.6680000  -2.1160000 -10.9940000  -0.3500000
  -3.3000000 -10.8010000  -2.0240000  -4.3360000 -11.0430000  -2.2590000
  -2.3470000 -11.5550000  -2.9610000  -2.7020000 -11.9980000  -4.0370000
  -3.1230000  -9.2980000  -2.3490000  -2.0440000  -9.1400000  -2.3410000
  -3.4000000  -9.0140000  -3.3650000  -3.8560000  -8.2960000  -1.4340000
  -3.7910000  -8.5850000  -0.3850000  -3.2270000  -6.9510000  -1.5500000
  -3.3760000  -6.4190000  -2.4890000  -3.6360000  -6.2510000  -0.8220000
  -2.1630000  -6.9780000  -1.3120000  -5.3090000  -8.2700000  -1.8580000
  -5.4040000  -7.7960000  -2.8350000  -5.8160000  -7.6560000  -1.1140000
  -5.7190000  -9.2790000  -1.8810000  -1.0780000 -11.8050000  -2.4950000
  -0.8740000 -11.4580000  -1.5680000  -0.1110000 -12.6830000  -3.1070000
   0.1920000 -12.2010000  -4.0360000  -0.6610000 -13.9660000  -3.6320000
  -1.4850000 -14.6820000  -3.0370000   1.0760000 -13.0240000  -2.1790000
   0.8450000 -13.8430000  -1.4980000   1.8500000 -13.4570000  -2.8130000
   1.5440000 -11.7800000  -1.3100000   2.6210000 -11.8250000  -1.1480000
   1.3570000 -10.8120000  -1.7750000   0.8620000 -11.7650000   0.0430000
  -0.3660000 -11.5020000   0.1270000   1.4690000 -12.1360000   1.0880000
  -0.2110000 -14.3690000  -4.8400000   0.3240000 -13.7200000  -5.3990000
  -0.7680000 -15.5170000  -5.5380000  -0.8010000 -16.4060000  -4.9090000
  -0.1380000 -15.7020000  -6.4070000  -2.1890000 -15.2900000  -6.0000000
  -2.5490000 -15.7360000  -7.0990000  -3.1040000 -14.6360000  -5.2250000
  -2.8500000 -14.2090000  -4.3460000  -4.4580000 -14.3960000  -5.6820000
  -4.8810000 -15.3310000  -6.0490000  -4.3130000 -13.4740000  -6.9480000
  -4.8970000 -13.7480000  -8.0210000  -5.3070000 -13.7880000  -4.5980000
  -4.9590000 -12.7600000  -4.4970000  -5.3820000 -14.5720000  -3.2850000
  -4.3860000 -14.7310000  -2.8720000  -5.8970000 -15.5020000  -3.5270000
  -6.7190000 -13.6580000  -5.2040000  -7.2220000 -12.9300000  -4.5670000
  -6.6820000 -13.3540000  -6.2500000  -7.2970000 -14.5710000  -5.0610000
  -6.1940000 -13.8120000  -2.2190000  -7.0940000 -14.3960000  -2.0240000
  -5.6100000 -13.8010000  -1.2990000  -6.3830000 -12.7500000  -2.3740000
  -3.5680000 -12.3760000  -6.8030000  -3.1220000 -12.1850000  -5.9170000
  -3.2170000 -11.3810000  -7.8360000  -3.9620000 -11.5640000  -8.6110000
  -1.8140000 -11.6260000  -8.4090000  -0.9580000 -12.1320000  -7.6360000
  -3.2640000  -9.9580000  -7.3110000  -3.2310000  -9.2750000  -8.1600000
  -2.2650000  -9.7100000  -6.9540000  -4.4550000  -9.6690000  -6.3510000
  -4.3700000 -10.2950000  -5.4630000  -4.5190000  -8.2210000  -6.0090000
  -5.1500000  -8.2410000  -5.1210000  -3.5300000  -7.8550000  -5.7360000
  -4.8310000  -7.5390000  -6.8010000  -5.8900000  -9.8540000  -6.9650000
  -6.0100000 -10.8590000  -7.3700000  -6.1420000  -9.1790000  -7.7820000
  -6.6790000  -9.7780000  -6.2160000  -1.5830000 -11.2380000  -9.6470000
  -2.3600000 -10.9600000 -10.2290000  -0.3480000 -11.5060000 -10.2560000
  -0.1100000 -12.5170000  -9.9260000   0.7470000 -10.5650000  -9.6290000
   0.5410000  -9.5190000  -9.0700000  -0.4300000 -11.3960000 -11.7310000
   0.5030000 -11.8550000 -12.0560000  -1.3250000 -11.8740000 -12.1300000
  -0.4550000  -9.9290000 -12.1680000  -1.5510000  -9.2850000 -12.2970000
   0.5940000  -9.4480000 -12.6800000   1.9770000 -11.0370000  -9.6840000
   2.2190000 -11.7820000 -10.3220000   3.0930000 -10.2750000  -9.1100000
   2.9650000 -10.2630000  -8.0270000   3.1860000  -8.7980000  -9.4210000
   3.3290000  -7.9400000  -8.4820000   4.4210000 -10.9770000  -9.4580000
   5.2120000 -10.4720000  -8.9040000   4.5170000 -10.8220000 -10.5330000
   4.4360000 -12.5020000  -9.0460000   3.6840000 -12.9260000  -8.1390000
   5.1170000 -13.2270000  -9.7720000   2.9780000  -8.3770000 -10.6760000
   2.9720000  -9.0260000 -11.4510000   2.9490000  -6.9550000 -11.0400000
   3.8940000  -6.4860000 -10.7620000   1.7670000  -6.2100000 -10.3810000
   1.9410000  -5.2050000  -9.6810000   2.8730000  -6.7810000 -12.5850000
   3.6100000  -7.4630000 -13.0090000   3.1220000  -5.7710000 -12.9110000
   1.5500000  -7.1330000 -13.1140000   1.2870000  -7.9680000 -12.7230000
   0.5380000  -6.7030000 -10.5510000   0.3910000  -7.6030000 -10.9850000
  -0.7070000  -6.2070000  -9.9780000  -0.8740000  -5.2180000 -10.4050000
  -0.6590000  -6.1740000  -8.4100000  -1.0440000  -5.1770000  -7.7520000
  -1.9760000  -7.0130000 -10.3260000  -1.7320000  -8.0650000 -10.1780000
  -2.4070000  -6.8200000 -11.7120000  -2.0610000  -7.5660000 -12.2080000
  -3.2490000  -6.5850000  -9.5380000  -3.3200000  -7.0830000  -8.5710000
  -3.2810000  -5.5150000  -9.3340000  -4.2110000  -6.8990000  -9.9430000
  -0.1810000  -7.1890000  -7.7450000  -0.0660000  -8.0580000  -8.2460000
  -0.0840000  -7.1940000  -6.2590000  -1.0790000  -7.0200000  -5.8480000
   0.8430000  -6.0190000  -5.7480000   0.5200000  -5.4070000  -4.6740000
   0.5050000  -8.5610000  -5.8330000  -0.3570000  -9.2280000  -5.8060000
   1.1850000  -8.9440000  -6.5940000   1.2780000  -8.5670000  -4.4750000
   2.6280000  -8.8650000  -4.5010000   2.9830000  -9.1890000  -5.4680000
   0.7350000  -8.0960000  -3.2990000  -0.2920000  -7.7990000  -3.1400000
   3.4970000  -8.8570000  -3.3690000   4.4730000  -9.2930000  -3.5180000
   1.5270000  -8.0480000  -2.1350000   1.1640000  -7.6290000  -1.2080000
   2.9160000  -8.3970000  -2.1780000   3.6510000  -8.4380000  -1.0620000
   4.4630000  -8.9450000  -1.1430000   1.9910000  -5.8880000  -6.3640000
   2.1700000  -6.4010000  -7.2160000   2.8630000  -4.6890000  -6.2440000
   3.0790000  -4.5450000  -5.1850000   2.2700000  -3.3720000  -6.5180000
   2.3940000  -2.4240000  -5.7020000   4.2110000  -4.8520000  -6.8870000
   4.0720000  -4.9630000  -7.9630000   4.8250000  -3.9630000  -6.7480000
   4.9610000  -6.0430000  -6.3240000   4.2530000  -6.8540000  -6.1570000
   5.4720000  -5.6970000  -5.4260000   5.9740000  -6.4450000  -7.3360000
   5.6150000  -6.4600000  -8.3650000   6.7820000  -5.7130000  -7.3440000
   6.4600000  -7.9430000  -7.0610000   6.6680000  -8.1240000  -6.0070000
   5.5510000  -8.5280000  -7.2080000   7.5580000  -8.4260000  -7.8610000
   7.9650000  -9.3000000  -7.5600000   8.3600000  -7.8130000  -7.8930000
   7.3140000  -8.5080000  -8.8380000   1.4920000  -3.2840000  -7.6190000
   1.3790000  -4.0510000  -8.2660000   0.7360000  -2.0420000  -7.9950000
   1.4850000  -1.2690000  -8.1630000  -0.1710000  -1.6540000  -6.8290000
  -0.0610000  -0.5340000  -6.2960000   0.0260000  -2.1000000  -9.3040000
  -0.6910000  -2.9190000  -9.2520000  -0.4680000  -1.1460000  -9.4870000
   0.6810000  -2.4030000 -10.1220000  -1.1120000  -2.4810000  -6.4150000
  -1.0960000  -3.4000000  -6.8330000  -2.0040000  -2.1540000  -5.2230000
  -2.5520000  -1.2250000  -5.3850000  -1.2870000  -1.9350000  -3.8720000
  -1.5020000  -0.9380000  -3.2180000  -3.0670000  -3.2870000  -5.0760000
  -2.5320000  -4.2260000  -4.9370000  -4.0200000  -3.3590000  -6.2840000
  -3.4250000  -3.2040000  -7.1840000  -4.7050000  -2.5150000  -6.3770000
  -4.0270000  -2.9350000  -3.9640000  -3.5030000  -3.1900000  -3.0440000
  -4.9690000  -3.4830000  -3.9720000  -4.1960000  -1.8580000  -3.9600000
  -4.7630000  -4.7190000  -6.4910000  -5.7160000  -4.6780000  -5.9630000
  -4.0030000  -5.4370000  -6.1830000  -5.0360000  -4.7760000  -7.5450000
  -0.3000000  -2.7170000  -3.5630000   0.0220000  -3.4010000  -4.2330000
   0.4320000  -2.5050000  -2.2290000  -0.3610000  -2.4320000  -1.4850000
   1.3650000  -1.3310000  -2.2120000   1.5800000  -0.7850000  -1.1600000
   1.0960000  -3.8030000  -1.7840000   1.4690000  -3.8070000  -0.7590000
   1.9550000  -3.8850000  -2.4500000   0.1170000  -4.8350000  -1.8680000
  -0.0210000  -4.9440000  -2.8110000   1.8460000  -0.9390000  -3.3440000
   1.5830000  -1.3560000  -4.2260000   2.6300000   0.2550000  -3.5310000
   3.2130000   0.2950000  -2.6100000   1.7670000   1.5510000  -3.4400000
   2.2110000   2.5960000  -2.9120000   3.4700000   0.2780000  -4.8060000
   4.1150000  -0.6000000  -4.8020000   3.9360000   1.2620000  -4.8700000
   2.6640000   0.2100000  -6.0370000   2.4580000  -0.7190000  -6.1640000
   0.5290000   1.4370000  -3.9850000   0.2740000   0.5460000  -4.3870000
  -0.4430000   2.4740000  -3.9340000   0.0240000   3.4180000  -4.2140000
  -0.8290000   2.7670000  -2.4760000  -0.8630000   3.8990000  -2.0680000
  -1.6510000   2.0830000  -4.7640000  -1.4880000   2.3770000  -5.8010000
  -1.7560000   1.0000000  -4.7010000  -2.9710000   2.6530000  -4.3500000
  -3.3480000   3.7880000  -5.0830000  -2.8610000   4.1600000  -5.9720000
  -3.8010000   2.1160000  -3.4020000  -3.5720000   1.2190000  -2.8460000
  -4.6630000   4.3130000  -4.9190000  -5.0390000   5.0820000  -5.5760000
  -5.0820000   2.6340000  -3.2450000  -5.7660000   2.0650000  -2.6330000
  -5.5260000   3.7410000  -3.9890000  -6.5680000   4.0070000  -3.8860000
  -1.0380000   1.6800000  -1.7260000  -0.9640000   0.7780000  -2.1740000
  -1.4440000   1.7950000  -0.2970000  -2.1870000   2.5910000  -0.2520000
  -0.2520000   2.2930000   0.5680000  -0.5040000   3.0320000   1.4420000
  -2.0740000   0.5130000   0.2380000  -1.4120000  -0.3310000   0.0430000
  -2.1230000   0.5950000   1.3230000  -3.4270000   0.2540000  -0.3370000
  -3.8110000  -0.8360000  -1.0830000  -3.2000000  -1.6770000  -1.3740000
  -4.6560000   0.9370000  -0.0370000  -5.1080000  -0.6430000  -1.4410000
  -5.6270000  -1.2900000  -2.0180000  -5.6770000   0.3020000  -0.7900000
  -4.9750000   2.0790000   0.6960000  -4.2370000   2.7270000   1.1450000
  -6.9910000   0.7400000  -0.6100000  -7.7750000   0.2120000  -1.1320000
  -6.2640000   2.5640000   0.7930000  -6.4460000   3.4300000   1.4120000
  -7.3260000   1.7770000   0.2720000  -8.3600000   2.0230000   0.4620000
   1.0240000   1.9210000   0.2840000   1.1290000   1.1620000  -0.3730000
   2.1780000   2.4590000   0.9940000   2.0420000   2.4410000   2.0750000
   2.3520000   3.9500000   0.7540000   2.5230000   4.7280000   1.7370000
   3.4240000   1.5680000   0.6900000   3.2480000   0.5030000   0.8400000
   3.6090000   1.6040000  -0.3840000   4.6520000   2.0310000   1.4320000
   4.3960000   2.1410000   2.4860000   4.8730000   3.0570000   1.1370000
   5.8990000   1.2400000   1.3500000   5.9660000   0.2490000   0.6140000
   6.9130000   1.6890000   1.9050000   2.2250000   4.3900000  -0.4820000
   2.1480000   3.7640000  -1.2700000   2.0970000   5.8420000  -0.9890000
   3.0220000   6.3380000  -0.6990000   0.9000000   6.5640000  -0.3570000
   1.0050000   7.7220000  -0.0050000   1.9070000   5.8980000  -2.4940000
   1.2910000   5.0380000  -2.7590000   1.3390000   6.8120000  -2.6680000
   3.2070000   5.7700000  -3.3550000   3.6880000   4.8560000  -3.0070000
   3.9330000   6.5640000  -3.1780000   2.8150000   5.6900000  -4.8130000
   2.2450000   6.5990000  -5.0070000   2.0860000   4.8920000  -4.9580000
   4.0430000   5.6590000  -5.7190000   4.6550000   4.7590000  -5.6600000
   4.6890000   6.5090000  -5.4970000   3.5550000   5.6840000  -7.1590000
   2.9150000   4.9790000  -7.4960000   4.3220000   5.6190000  -7.8130000
   3.0960000   6.5620000  -7.3550000  -0.2030000   5.8660000  -0.0190000
  -0.2700000   4.8720000  -0.1850000  -1.3250000   6.4030000   0.7580000
  -1.5580000   7.4350000   0.4990000  -1.2010000   6.4780000   2.2560000
  -1.7330000   7.4140000   2.9080000  -2.6220000   5.6130000   0.4920000
  -3.2950000   5.8260000   1.3240000  -2.4090000   4.5440000   0.5070000
  -3.3220000   6.0790000  -0.7990000  -2.7330000   5.8040000  -1.6740000
  -3.3700000   7.1560000  -0.9530000  -4.7050000   5.4310000  -0.8700000
  -5.1310000   5.5930000  -1.8600000  -4.5880000   4.3640000  -0.6800000
  -5.6540000   5.9820000   0.0890000  -5.4900000   5.7030000   1.0460000
  -6.6340000   6.8370000  -0.0870000  -7.0910000   7.3590000  -1.2270000
  -7.8850000   7.9830000  -1.2370000  -6.6260000   7.0530000  -2.0700000
  -7.2470000   7.2670000   0.9910000  -6.9460000   6.8650000   1.8670000
  -8.0200000   7.9070000   0.8810000  -0.4800000   5.5900000   2.8620000
  -0.4040000   4.6860000   2.4190000  -0.0940000   5.7430000   4.3040000
  -0.8950000   5.8950000   5.0270000   0.7720000   7.0590000   4.3640000
   0.6270000   7.8790000   5.2920000   0.7810000   4.4820000   4.7850000
   1.4930000   4.2410000   3.9950000  -0.1920000   3.3290000   5.1290000
  -1.0620000   3.4280000   4.4800000  -0.7000000   3.5590000   6.0660000
   1.5450000   4.7950000   6.0470000   1.7040000   3.8720000   6.6050000
   0.9820000   5.5230000   6.6310000   2.5050000   5.1660000   5.6870000
   0.2550000   1.8660000   5.1850000   1.2660000   1.9150000   5.5900000
   0.4090000   1.4650000   4.1830000  -0.4370000   1.3480000   5.8500000
   1.6830000   7.1900000   3.4090000   1.8420000   6.4440000   2.7470000
   2.6280000   8.3590000   3.4720000   2.9900000   8.2970000   4.4980000
   1.8170000   9.6440000   3.2430000   1.9160000  10.5060000   4.1120000
   3.8910000   8.1340000   2.5400000   3.4570000   7.7930000   1.6000000
   4.4550000   9.0190000   2.2480000   4.7570000   7.0160000   3.1330000
   4.2090000   6.2770000   3.7170000   5.3850000   7.5880000   3.8160000
   5.5680000   6.3420000   2.0500000   4.8170000   6.0440000   1.3190000
   6.1530000   7.1460000   1.6040000   6.2960000   5.1660000   2.6630000
   6.9410000   5.4870000   3.4810000   5.5610000   4.5340000   3.1620000
   7.1020000   4.4850000   1.5900000   7.9210000   4.9560000   1.2330000
   7.3590000   3.5760000   1.9450000   6.5240000   4.2370000   0.8000000
   0.9400000   9.7140000   2.1980000   0.9260000   8.9880000   1.4960000
   0.0650000  10.8030000   2.0830000   0.6730000  11.5950000   1.6470000
  -0.6830000  11.2520000   3.3940000  -1.2060000  12.3550000   3.3710000
  -1.0960000  10.5830000   1.1480000  -0.7110000  10.1310000   0.2340000
  -1.5050000  11.5490000   0.8510000  -2.2340000   9.7440000   1.6710000
  -1.9170000   8.9260000   2.0610000  -0.7860000  10.3760000   4.4240000
  -0.1780000   9.5780000   4.3100000  -1.5100000  10.5930000   5.6350000
  -2.3030000  11.3050000   5.4060000  -0.6870000  11.1810000   6.7720000
  -1.1850000  11.5240000   7.8550000  -2.1560000   9.2730000   6.1070000
  -1.4900000   8.4190000   6.2330000  -2.5530000   9.4210000   7.1120000
  -3.3870000   8.9860000   5.2730000  -4.0710000   9.9510000   4.8120000
  -3.8440000   7.7960000   5.2110000   0.6430000  11.1640000   6.6610000
   1.0920000  10.7530000   5.8560000   1.6110000  11.6770000   7.6430000
   1.2710000  11.2630000   8.5920000   1.7170000  13.2030000   7.7220000
   1.7980000  13.8810000   6.6860000   2.9860000  10.9740000   7.3030000
   3.1040000  11.1120000   6.2280000   2.8200000   9.4560000   7.6870000
   1.9730000   9.0690000   7.1220000   2.4610000   9.3980000   8.7150000
   4.2470000  11.6020000   7.9360000   4.1690000  11.7640000   9.0110000
   4.4380000  12.5820000   7.4990000   5.1280000  11.0570000   7.5960000
   4.0340000   8.5010000   7.4520000   3.7990000   7.5100000   7.0650000
   4.7860000   8.8750000   6.7580000   4.4150000   8.4720000   8.4730000
   1.6070000  13.7600000   8.9190000   1.5520000  13.1720000   9.7390000
   1.5240000  15.2250000   9.2590000   1.6490000  15.8210000   8.3540000
   2.6740000  15.5380000  10.1710000   3.0850000  14.6500000  10.8890000
   0.0680000  15.6020000   9.7780000   0.0710000  16.6530000  10.0670000
  -0.2250000  15.0150000  10.6490000  -1.0840000  15.4050000   8.7630000
  -1.0310000  14.3800000   8.3960000  -0.9570000  16.1570000   7.9850000
  -2.4960000  15.5810000   9.3510000  -2.5520000  16.4900000   9.9510000
  -3.2730000  15.6580000   8.5910000  -2.7820000  14.4010000  10.2910000
  -2.7710000  13.4940000   9.6870000  -2.1340000  14.3540000  11.1660000
  -4.1330000  14.4370000  10.8210000  -4.2150000  15.2230000  11.4500000
  -4.3670000  13.5320000  11.2030000  -4.7560000  14.5380000  10.0320000
   3.0560000  16.7840000  10.4440000   2.6490000  17.5200000   9.8850000
   4.1510000  17.1120000  11.3470000   5.0300000  16.4990000  11.1480000
   3.9210000  16.7540000  12.8300000   4.9480000  16.4790000  13.5270000
   4.4960000  18.5630000  11.2590000   3.5620000  19.1230000  11.2090000
   5.0990000  18.8950000  12.1040000   5.2000000  18.9780000   9.9250000
   5.1660000  20.0640000  10.0080000   4.5910000  18.6520000   9.0820000
   6.6210000  18.4380000   9.7660000   7.3970000  18.4240000  10.7190000
   6.9560000  17.9010000   8.6990000   2.7100000  16.7410000  13.3550000
   1.9080000  16.8970000  12.7600000   2.3750000  16.2690000  14.7230000
   1.3230000  16.4800000  14.9110000   2.9590000  16.8550000  15.4330000
   2.5290000  14.7410000  14.9990000   2.5350000  14.4080000  16.1740000
   2.7620000  13.9070000  13.9590000   2.7740000  14.2450000  13.0080000
   2.9520000  12.4890000  14.1300000   2.1400000  12.1090000  14.7500000
   4.2460000  12.0190000  14.7580000   4.4140000  10.8060000  15.0640000
   2.8400000  11.8770000  12.7010000   3.6210000  12.3410000  12.0990000
   3.1170000  10.8350000  12.8630000   1.4530000  11.9230000  11.9690000
   0.4700000  12.4870000  12.5230000   1.3590000  11.3440000  10.9100000
   5.1880000  12.9000000  15.0960000   5.0980000  13.8220000  14.6940000
   6.5330000  12.6830000  15.4980000   6.7630000  11.6180000  15.5190000
   6.8110000  13.0710000  16.9400000   7.8520000  12.6560000  17.5020000
   7.3880000  13.4170000  14.4190000   7.3330000  14.5050000  14.4520000
   8.4220000  13.1310000  14.6140000   7.1740000  12.9810000  12.9990000
   7.7050000  11.7460000  12.5930000   8.1110000  11.0420000  13.3040000
   6.5130000  13.7270000  12.0060000   6.0830000  14.6740000  12.2970000
   7.5590000  11.2910000  11.2660000   8.0100000  10.3900000  10.8780000
   6.4230000  13.2860000  10.6740000   5.8980000  13.8220000   9.8970000
   6.8670000  12.0710000  10.3390000   6.7270000  11.7150000   9.3300000
   6.0300000  13.8720000  17.5080000   2.7120000  -7.9260000   2.3170000
   1.9060000  -8.0860000   1.1450000   0.8930000  -7.2320000   0.8740000
  -0.2770000  -7.2100000   1.6240000  -1.2830000  -6.3380000   1.2900000
  -1.1540000  -5.4860000   0.2180000  -2.2240000  -4.5370000  -0.1930000
  -2.7650000  -4.7440000  -1.2490000  -2.7170000  -3.4060000   0.6170000
  -4.0750000  -3.0920000   0.5760000  -4.5820000  -2.0610000   1.3340000
  -3.7510000  -1.3140000   2.1440000  -2.4070000  -1.6250000   2.2000000
  -1.9050000  -2.6700000   1.4450000   0.0240000  -5.4950000  -0.5170000
   0.1520000  -4.6290000  -1.5580000   1.0360000  -6.3760000  -0.1890000
   2.0855530  -8.0503567   3.2126001   3.5098062  -8.6832970   2.3195377
   3.1600474  -6.9213871   2.3195377  -0.3962217  -7.8885138   2.4815577
  -2.2058285  -6.3203136   1.8883934  -4.7486686  -3.6748026  -0.0693772
  -5.6569099  -1.8308708   1.2938855  -4.1546527  -0.4807409   2.7379223
  -1.7345087  -1.0411976   2.8457013  -0.8348253  -2.9162181   1.5090521
   0.9839098  -4.6195375  -2.0945972   1.9616203  -6.3915319  -0.7831261
