
  648  0.0000000e+00
 -23.1300000   9.3600000   5.3100000 -22.8800000   9.5900000   4.3600000
 -22.5600000   9.7800000   6.0300000 -24.1300000   9.4700000   5.4100000
 -22.8400000   7.9000000   5.4300000 -21.8100000   7.7300000   5.7100000
 -23.2300000   7.2300000   4.1200000 -24.3100000   7.6200000   3.5700000
 -23.6200000   7.2600000   6.6200000 -23.4200000   7.7200000   7.5900000
 -24.6900000   7.3900000   6.5000000 -23.3800000   5.7800000   6.8500000
 -22.3100000   5.6600000   6.7400000 -23.8700000   5.2700000   6.0200000
 -24.0000000   5.2700000   8.1900000 -25.0700000   5.4400000   8.1800000
 -23.6600000   5.8000000   9.0800000 -23.8100000   3.7900000   8.3200000
 -23.1300000   3.3300000   7.7300000 -24.4400000   2.9500000   9.1200000
 -25.3600000   3.3700000   9.9500000 -25.8900000   2.7100000  10.5100000
 -25.6900000   4.3200000  10.0000000 -24.0200000   1.7500000   9.1000000
 -24.4400000   1.0300000   9.6700000 -23.3600000   1.4900000   8.3900000
 -22.5500000   6.1800000   3.6400000 -21.8400000   5.7900000   4.2300000
 -22.8300000   5.5500000   2.3500000 -23.0200000   6.2600000   1.5500000
 -23.7100000   4.9400000   2.5200000 -21.7100000   4.6100000   1.8900000
 -20.7100000   4.4200000   2.6300000 -21.9600000   4.0500000   0.7000000
 -22.7900000   4.3700000   0.2100000 -21.1600000   2.9900000   0.0400000
 -21.0800000   2.0800000   0.6300000 -19.7400000   3.3900000  -0.3300000
 -18.8100000   2.5700000  -0.4700000 -21.7700000   2.6000000  -1.3200000
 -22.8100000   2.3100000  -1.2200000 -21.8200000   3.4800000  -1.9600000
 -21.0900000   1.5900000  -2.2400000 -20.2600000   2.1200000  -2.7000000
 -20.8100000   0.7400000  -1.6100000 -22.0400000   1.0000000  -3.3100000
 -23.1300000   1.5800000  -3.6600000 -21.7500000  -0.1400000  -3.7500000
 -19.4800000   4.7000000  -0.3000000 -20.3100000   5.2800000  -0.2900000
 -18.2100000   5.3900000  -0.3700000 -17.7500000   5.1800000  -1.3400000
 -17.1800000   4.9400000   0.7100000 -15.9700000   4.9800000   0.5200000
 -18.5200000   6.8600000  -0.3500000 -18.8000000   7.1400000   0.6700000
 -19.4100000   7.0600000  -0.9400000 -17.3800000   7.7500000  -0.8900000
 -16.4700000   7.4000000  -0.4100000 -17.3400000   7.7100000  -1.9800000
 -17.6500000   9.2200000  -0.4700000 -17.9800000   9.2100000   0.5700000
 -18.4900000   9.6700000  -1.0100000 -16.4000000  10.0000000  -0.5900000
 -16.1100000  10.4400000  -1.4600000 -15.5200000  10.0900000   0.3800000
 -15.7400000   9.6500000   1.5600000 -15.0200000   9.4100000   2.2300000
 -16.6900000   9.4000000   1.8000000 -14.3000000  10.6100000   0.2500000
 -13.9700000  11.1200000  -0.5600000 -13.7400000  10.4100000   1.0600000
 -17.6400000   4.4800000   1.8700000 -18.6500000   4.5000000   1.9900000
 -16.8100000   3.8100000   2.9200000 -15.9500000   4.4300000   3.1800000
 -16.2400000   2.5000000   2.3700000 -15.0100000   2.2300000   2.5900000
 -17.7500000   3.6000000   4.1500000 -18.1900000   4.5500000   4.4400000
 -18.5300000   2.8900000   3.8700000 -16.9700000   2.9800000   5.3500000
 -16.5400000   2.0100000   5.1100000 -16.1900000   3.6700000   5.6700000
 -17.9700000   2.7800000   6.5500000 -18.6700000   1.9700000   6.3800000
 -18.5300000   3.6800000   6.7700000 -17.1400000   2.4100000   7.8100000
 -17.8000000   2.6900000   8.6300000 -16.2000000   2.9400000   7.8600000
 -16.8700000   0.9500000   7.9500000 -17.6000000   0.4700000   8.4500000
 -16.1600000   0.8000000   8.6500000 -16.8100000   0.4900000   7.0500000
 -16.9900000   1.6800000   1.6200000 -17.9600000   1.8400000   1.3800000
 -16.5000000   0.4600000   1.0000000 -16.1100000  -0.1600000   1.8000000
 -15.2900000   0.7400000   0.0300000 -14.1900000   0.2100000   0.2400000
 -17.6200000  -0.2900000   0.2900000 -17.8800000   0.2700000  -0.6100000
 -17.2100000  -1.2500000  -0.0200000 -18.8000000  -0.7000000   1.1600000
 -19.4200000   0.1600000   1.4200000 -19.5500000  -1.2500000   0.5800000
 -18.3800000  -1.3700000   2.4600000 -18.9800000  -1.0700000   3.5200000
 -17.3900000  -2.1200000   2.4000000 -15.5300000   1.6900000  -0.9100000
 -16.4500000   2.1000000  -0.9700000 -14.4200000   2.2100000  -1.7000000
 -14.0300000   1.3900000  -2.3000000 -13.2100000   2.7200000  -0.8800000
 -12.1100000   2.2200000  -1.1000000 -14.8600000   3.1800000  -2.7800000
 -15.7600000   2.8500000  -3.2800000 -15.0500000   4.1500000  -2.3200000
 -13.7500000   3.2800000  -3.8600000 -13.6500000   2.3000000  -4.3300000
 -12.8500000   3.7500000  -3.4700000 -14.1700000   4.2600000  -5.0200000
 -15.1700000   4.0400000  -5.3800000 -14.1400000   5.2800000  -4.6400000
 -13.1400000   4.1100000  -6.1700000 -13.1100000   3.1300000  -6.6500000
 -12.1500000   4.3900000  -5.8100000 -13.5100000   5.0500000  -7.2200000
 -13.3200000   6.0400000  -7.0900000 -13.0300000   4.7200000  -8.0400000
 -14.5000000   4.9300000  -7.3600000 -13.4900000   3.5700000   0.0700000
 -14.4500000   3.8000000   0.3100000 -12.4200000   4.1100000   0.9500000
 -11.7400000   4.7700000   0.4300000 -11.5500000   3.0500000   1.5700000
 -10.3000000   3.1200000   1.6200000 -13.0700000   4.9600000   1.9600000
 -13.4800000   5.8000000   1.4000000 -13.8900000   4.3600000   2.3300000
 -12.2500000   5.5700000   2.8900000 -12.3300000   5.1500000   3.7600000
 -12.2400000   1.9300000   1.9300000 -13.2400000   1.9700000   1.9500000
 -11.5900000   0.8500000   2.6400000 -10.8200000   1.1900000   3.3500000
 -10.7500000   0.0200000   1.6400000  -9.6600000  -0.3700000   2.0400000
 -12.6800000   0.0100000   3.3300000 -13.0900000   0.7200000   4.0400000
 -13.4000000  -0.3800000   2.6100000 -12.1300000  -1.1500000   4.0900000
 -11.4500000  -1.7700000   3.5000000 -11.6000000  -0.7400000   4.9500000
 -13.3000000  -2.0600000   4.5300000 -14.0300000  -1.5200000   5.1400000
 -13.8700000  -2.4900000   3.7000000 -12.7400000  -3.2700000   5.2500000
 -12.1700000  -2.9600000   6.1300000 -12.0300000  -3.7900000   4.6000000
 -13.9000000  -4.1400000   5.7300000 -13.5300000  -4.9700000   6.1700000
 -14.4500000  -4.3300000   4.9000000 -14.3900000  -3.5900000   6.4200000
 -11.2100000  -0.2100000   0.4100000 -12.1700000   0.0400000   0.2100000
 -10.3800000  -0.8500000  -0.6300000  -9.9800000  -1.8000000  -0.2700000
  -9.1400000   0.0100000  -0.9800000  -8.1300000  -0.5500000  -1.3300000
 -11.1400000  -1.1300000  -1.9700000 -11.5200000  -0.1900000  -2.3700000
 -10.4400000  -1.5800000  -2.6700000 -12.3700000  -2.0200000  -1.7000000
 -13.0200000  -1.5600000  -0.9600000 -11.9100000  -3.4200000  -1.2200000
 -11.4200000  -3.3500000  -0.2500000 -11.2500000  -3.9100000  -1.9400000
 -12.7600000  -4.0600000  -0.9900000 -13.1400000  -2.2500000  -3.0000000
 -14.1200000  -2.6500000  -2.7700000 -13.2700000  -1.3300000  -3.5800000
 -12.5900000  -2.8500000  -3.7200000  -9.2300000   1.3200000  -0.8100000
 -10.0000000   1.8000000  -0.3700000  -8.0600000   2.2000000  -1.1800000
  -7.7400000   1.9200000  -2.1800000  -6.9100000   2.0900000  -0.1900000
  -5.7400000   2.1100000  -0.5700000  -8.4600000   3.7300000  -1.2500000
  -8.8100000   4.0100000  -0.2600000  -9.6000000   3.9800000  -2.3400000
 -10.4200000   3.2700000  -2.1800000 -10.0800000   4.9500000  -2.1600000
  -7.3600000   4.7500000  -1.3700000  -7.7700000   5.7200000  -1.6400000
  -6.5900000   4.3900000  -2.0600000  -6.8000000   4.9700000  -0.4600000
  -9.3100000   3.9400000  -3.7800000  -8.4800000   4.5900000  -4.0700000
 -10.0600000   4.1100000  -4.5400000  -8.9700000   2.9100000  -3.8500000
  -7.2200000   1.9700000   1.1200000  -8.2000000   2.1500000   1.3100000
  -6.2900000   1.9300000   2.2300000  -5.5800000   2.7400000   2.0600000
  -5.4600000   0.6300000   2.2700000  -4.2500000   0.6400000   2.5400000
  -7.1800000   2.1100000   3.5000000  -7.6200000   3.1100000   3.4300000
  -7.9700000   1.3700000   3.4100000  -6.5700000   2.0600000   4.9100000
  -5.7700000   3.1200000   5.3400000  -5.5200000   3.9500000   4.6900000
  -6.8400000   1.0000000   5.7800000  -7.3300000   0.1400000   5.3500000
  -5.0900000   3.0200000   6.5400000  -4.4300000   3.8500000   6.7700000
  -6.1900000   0.8900000   7.0100000  -6.2200000  -0.0300000   7.5800000
  -5.3000000   1.9300000   7.4100000  -4.8400000   1.9000000   8.3900000
  -6.1600000  -0.4100000   1.8600000  -7.1400000  -0.2900000   1.6400000
  -5.6000000  -1.7500000   1.6200000  -4.9700000  -2.0300000   2.4600000
  -4.6100000  -1.7100000   0.4600000  -3.4600000  -2.0700000   0.6900000
  -6.6200000  -2.8200000   1.3900000  -7.3400000  -2.5100000   0.6400000
  -7.3900000  -3.2800000   2.6900000  -7.5900000  -2.3500000   3.2200000
  -6.6900000  -3.8800000   3.2800000  -5.9100000  -4.1300000   0.8800000
  -6.2600000  -5.0700000   1.3000000  -4.8800000  -4.1400000   1.2300000
  -6.0500000  -4.1700000  -0.2100000  -8.6700000  -4.0700000   2.4900000
  -8.5200000  -4.9700000   1.9000000  -9.4100000  -3.4600000   1.9700000
  -9.0300000  -4.1500000   3.5100000  -4.8800000  -1.1700000  -0.7400000
  -5.7900000  -0.7400000  -0.8000000  -3.9900000  -1.0200000  -1.9000000
  -3.6000000  -1.9500000  -2.3100000  -2.7800000  -0.1700000  -1.5400000
  -1.6000000  -0.4400000  -1.7800000  -4.7700000  -0.5100000  -3.1300000
  -5.3400000   0.3600000  -2.8200000  -5.8100000  -1.4900000  -3.7300000
  -6.4600000  -1.8400000  -2.9300000  -5.3700000  -2.3300000  -4.2700000
  -3.7700000  -0.0300000  -4.2300000  -3.1900000   0.8200000  -3.8700000
  -3.1100000  -0.8400000  -4.5200000  -4.2400000   0.4400000  -5.0900000
  -6.8500000  -0.8300000  -4.5800000  -7.3100000   0.0300000  -4.0900000
  -6.5200000  -0.6700000  -5.6100000  -7.7200000  -1.4900000  -4.6400000
  -3.0500000   1.0300000  -0.9400000  -4.0200000   1.2300000  -0.7300000
  -1.9700000   1.9800000  -0.5300000  -1.4400000   2.2900000  -1.4300000
  -0.9200000   1.3600000   0.3000000   0.2500000   1.6400000   0.0200000
  -2.5300000   3.2400000   0.0200000  -3.0000000   3.1000000   0.9900000
  -3.3200000   3.5500000  -0.6600000  -1.4800000   4.3600000   0.0600000
  -0.8400000   4.7300000  -1.0100000  -1.2900000   4.8500000   1.2200000
  -1.4000000   0.6000000   1.2300000  -2.4100000   0.5200000   1.3200000
  -0.5300000  -0.2300000   2.1600000   0.0900000   0.5000000   2.6800000
   0.3300000  -1.2200000   1.4500000   1.5600000  -1.1700000   1.5100000
  -1.4200000  -0.9300000   3.2000000  -2.2000000  -1.4800000   2.6800000
  -1.8600000  -0.1200000   3.8000000  -0.6100000  -1.7600000   4.0100000
  -0.2100000  -1.2700000   4.7200000  -0.3400000  -2.1100000   0.6800000
  -1.3500000  -2.0800000   0.7500000   0.2400000  -3.1900000  -0.1400000
   0.7200000  -3.9200000   0.5100000   1.2700000  -2.6200000  -1.1500000
   2.3300000  -3.2500000  -1.2200000  -0.8700000  -3.9300000  -0.9300000
  -0.3300000  -4.5700000  -1.6300000  -1.4800000  -3.2400000  -1.5100000
  -1.7400000  -4.9300000  -0.0600000  -1.0800000  -5.7300000   0.2800000
  -2.1100000  -4.3100000   0.7500000  -2.9300000  -5.5600000  -0.8600000
  -3.6700000  -4.8100000  -1.1100000  -2.6400000  -5.9600000  -1.8300000
  -3.7000000  -6.7500000  -0.2300000  -2.9900000  -7.5700000  -0.1000000
  -4.1300000  -6.5100000   0.7400000  -4.7000000  -7.2500000  -1.2000000
  -5.4200000  -6.5600000  -1.3300000  -5.1400000  -8.1100000  -0.9000000
  -4.2600000  -7.3500000  -2.1100000   1.0800000  -1.4700000  -1.7400000
   0.2000000  -0.9900000  -1.6800000   2.0800000  -0.8000000  -2.5900000
   2.4600000  -1.5700000  -3.2600000   3.2800000  -0.2600000  -1.7700000
   4.4400000  -0.4900000  -2.2300000   1.4000000   0.4000000  -3.3600000
   0.9200000   1.0300000  -2.6000000   0.2800000  -0.1100000  -4.2600000
  -0.3600000  -0.9400000  -3.9600000   0.6600000  -0.4500000  -5.2200000
   2.5600000   1.2800000  -4.0400000   3.1400000   0.6100000  -4.6700000
   3.2200000   1.7900000  -3.3300000   2.1900000   2.1800000  -4.5300000
  -0.5800000   1.0700000  -4.7200000  -1.3600000   0.6900000  -5.3700000
  -1.1100000   1.4100000  -3.8300000   0.1200000   1.8200000  -5.0900000
   3.1000000   0.3400000  -0.5800000   2.1700000   0.2800000  -0.1800000
   4.2300000   0.9100000   0.1300000   4.7900000   1.5200000  -0.5800000
   5.1600000  -0.1600000   0.7100000   6.3800000  -0.1700000   0.6400000
   3.6800000   1.8800000   1.2100000   3.0600000   1.4400000   1.9900000
   3.0500000   2.6200000   0.7100000   4.7200000   2.7900000   1.9800000
   4.7200000   4.2000000   1.6800000   4.1100000   4.6600000   0.9200000
   5.5800000   2.2600000   2.9200000   5.5900000   1.1900000   3.1000000
   5.6700000   5.0000000   2.3900000   5.8200000   6.0500000   2.1400000
   6.4700000   3.1000000   3.6000000   7.1400000   2.6800000   4.3400000
   6.5800000   4.4500000   3.3200000   7.3700000   5.0100000   3.7800000
   4.5600000  -1.2100000   1.2200000   3.5700000  -1.1100000   1.4300000
   5.2600000  -2.3800000   1.7100000   5.9200000  -2.1000000   2.5300000
   6.1700000  -3.0200000   0.6600000   7.3000000  -3.4100000   0.9900000
   4.2300000  -3.4700000   2.2200000   3.4700000  -3.6800000   1.4700000
   4.8200000  -4.3600000   2.4700000   3.4100000  -3.0600000   3.4800000
   2.9200000  -2.1100000   3.2900000   4.1900000  -2.9500000   4.7600000
   3.5400000  -2.8100000   5.6300000   4.9800000  -2.2200000   4.5600000
   4.6400000  -3.9400000   4.8600000   2.1700000  -3.9400000   3.7100000
   2.5300000  -4.9300000   3.9900000   1.4100000  -3.9700000   2.9300000
   1.6000000  -3.5300000   4.5500000   5.7100000  -3.1900000  -0.5900000
   4.7600000  -2.8700000  -0.7000000   6.4500000  -3.8000000  -1.7000000
   6.7600000  -4.8000000  -1.4000000   7.6300000  -2.9600000  -2.1600000
   8.6900000  -3.4400000  -2.5900000   5.5500000  -3.9500000  -2.9200000
   5.3700000  -3.0100000  -3.4300000   6.0700000  -4.5400000  -3.6700000
   4.2700000  -4.4600000  -2.6500000   3.6600000  -3.7700000  -2.3700000
   7.5600000  -1.6300000  -1.9400000   6.7100000  -1.3000000  -1.5100000
   8.7500000  -0.7200000  -2.0100000   9.3600000  -0.9900000  -2.8700000
   9.6800000  -0.7500000  -0.8300000  10.8700000  -0.6200000  -1.0600000
   8.2000000   0.6900000  -2.2500000   7.6700000   1.0600000  -1.3700000
   7.4500000   0.6400000  -3.0300000   9.1700000   1.8200000  -2.5500000
   9.5200000   2.0400000  -3.8500000   9.1400000   1.3500000  -4.5900000
   9.9100000   2.4400000  -1.5400000   9.7400000   2.2800000  -0.4800000
  10.5500000   2.9200000  -4.2200000  10.8400000   3.1600000  -5.2300000
  10.8600000   3.4400000  -1.8500000  11.2900000   4.0700000  -1.0800000
  11.2500000   3.5800000  -3.1900000  12.0300000   4.2700000  -3.4900000
   9.1800000  -1.0500000   0.4200000   8.1800000  -1.0900000   0.5400000
  10.1300000  -1.2300000   1.5900000  10.6500000  -0.2700000   1.6400000
  10.9900000  -2.4700000   1.3200000  12.2000000  -2.5700000   1.5600000
   9.3200000  -1.3800000   2.9000000   8.6000000  -0.5600000   2.9000000
   8.8100000  -2.3300000   2.8000000  10.2100000  -1.3900000   4.0000000
   9.6400000  -1.2500000   4.7600000  10.3200000  -3.5200000   0.7400000
   9.3100000  -3.4500000   0.6300000  11.0300000  -4.6800000   0.1600000
  11.5600000  -5.1400000   1.0000000  12.0400000  -4.3100000  -0.9700000
  13.0600000  -4.9800000  -1.0400000   9.9800000  -5.7700000  -0.3200000
   9.2300000  -5.2900000  -0.9500000   9.0800000  -6.3100000   0.8400000
   9.7700000  -6.7800000   1.5400000   8.7000000  -5.4500000   1.4000000
  10.7000000  -6.7800000  -1.1300000  10.9100000  -6.2700000  -2.0800000
  11.6100000  -7.1900000  -0.7000000  10.0900000  -7.6800000  -1.2100000
   8.0200000  -7.4000000   0.6500000   8.4500000  -8.3400000   0.2900000
   7.4200000  -7.6600000   1.5200000   7.3400000  -7.0100000  -0.1000000
  11.8600000  -3.2500000  -1.8200000  10.9500000  -2.8100000  -1.8300000
  12.8600000  -2.8100000  -2.7900000  13.1500000  -3.7400000  -3.2800000
  14.0700000  -2.2800000  -2.2100000  15.0900000  -2.8900000  -2.4900000
  12.2400000  -1.9600000  -3.8900000  11.4300000  -2.4900000  -4.3900000
  11.7500000  -1.1300000  -3.3800000  13.1300000  -1.4900000  -4.9900000
  13.5600000  -0.2100000  -5.2300000  13.3700000   0.6500000  -4.6200000
  13.7900000  -2.3100000  -6.0000000  14.4100000  -0.2100000  -6.3200000
  14.8900000   0.6200000  -6.6600000  14.5600000  -1.4600000  -6.8800000
  13.7800000  -3.6800000  -6.3100000  13.2400000  -4.4100000  -5.7200000
  15.2900000  -1.9700000  -8.0000000  15.8800000  -1.3100000  -8.6100000
  14.5200000  -4.2200000  -7.4100000  14.5600000  -5.2900000  -7.5700000
  15.2400000  -3.3600000  -8.2400000  15.8100000  -3.6600000  -9.1100000
  13.9600000  -1.3500000  -1.2400000  13.0700000  -0.8900000  -1.1200000
  15.1000000  -0.9700000  -0.4200000  15.7800000  -0.5300000  -1.1400000
  15.7500000  -2.0900000   0.3700000  16.9800000  -2.0100000   0.5400000
  14.7200000   0.1500000   0.6100000  13.8700000  -0.2600000   1.1500000
  15.5800000   0.3100000   1.2600000  14.2500000   1.5400000   0.0400000
  13.3600000   1.3200000  -0.5500000  13.9100000   2.0300000   0.9500000
  15.2500000   2.3100000  -0.7700000  15.7000000   1.4900000  -1.3500000
  15.9600000   2.8300000  -0.1300000  14.6600000   3.2900000  -1.6500000
  14.4300000   2.9400000  -2.5700000  14.5300000   4.5900000  -1.4300000
  14.6700000   5.1800000  -0.2800000  14.8500000   6.1700000  -0.2200000
  14.9100000   4.6700000   0.5600000  14.2400000   5.2800000  -2.4600000
  14.0700000   6.2700000  -2.3500000  14.1400000   4.8200000  -3.3500000
  14.9400000  -3.0600000   0.9100000  13.9500000  -2.9800000   0.7700000
  15.4200000  -4.2000000   1.6600000  15.9600000  -3.7500000   2.4900000
  16.3300000  -5.1800000   0.8200000  17.4100000  -5.6000000   1.2800000
  14.2700000  -5.0300000   2.3200000  13.4800000  -5.1000000   1.5700000
  13.9200000  -4.4300000   3.1600000  14.7100000  -6.3700000   2.9000000
  15.4600000  -6.4500000   4.1300000  15.7500000  -5.5000000   4.5400000
  14.2800000  -7.5900000   2.3300000  13.7000000  -7.6200000   1.4100000
  15.8700000  -7.6800000   4.6900000  16.3800000  -7.8100000   5.6300000
  14.6000000  -8.7900000   2.9700000  14.2300000  -9.7100000   2.5300000
  15.5000000  -8.9100000   4.0700000  15.7600000  -9.8300000   4.5600000
  15.9800000  -5.2800000  -0.4500000  15.1200000  -4.8100000  -0.6900000
  16.7200000  -6.0200000  -1.4900000  16.8500000  -7.0400000  -1.1100000
  18.0800000  -5.4300000  -1.8300000  19.0400000  -6.1900000  -1.9000000
  15.8200000  -6.2600000  -2.7100000  15.0400000  -6.9400000  -2.4000000
  15.3700000  -5.2800000  -2.8800000  16.5400000  -6.7000000  -4.0300000
  17.3600000  -7.3800000  -3.7800000  15.6100000  -7.5100000  -4.9300000
  15.1400000  -8.3400000  -4.4000000  14.7700000  -6.9100000  -5.2700000
  16.1400000  -8.0100000  -5.7400000  17.0900000  -5.6200000  -4.8800000
  17.8100000  -4.9600000  -4.3900000  17.6200000  -6.0100000  -5.7500000
  16.2300000  -5.0000000  -5.1300000  18.1000000  -4.1400000  -2.0900000
  17.2700000  -3.5800000  -2.0200000  19.2900000  -3.4300000  -2.5100000
  19.6900000  -3.9900000  -3.3400000  20.3200000  -3.6400000  -1.3300000
  21.5000000  -3.9300000  -1.5300000  19.0600000  -1.9400000  -2.9100000
  18.6600000  -1.4100000  -2.0500000  18.0600000  -1.7700000  -4.0800000
  17.1300000  -2.2800000  -3.8000000  18.3600000  -2.3100000  -4.9800000
  20.4300000  -1.2100000  -3.0700000  20.2900000  -0.1400000  -3.2400000
  20.9400000  -1.6000000  -3.9500000  21.0000000  -1.2300000  -2.1400000
  17.7600000  -0.3400000  -4.3800000  17.4700000   0.2000000  -3.4800000
  18.6400000   0.1400000  -4.8200000  16.9800000  -0.3500000  -5.1500000
  19.9200000  -3.5000000  -0.0600000  18.9900000  -3.1400000   0.0600000
  20.8000000  -3.6800000   1.1500000  21.6700000  -3.0500000   0.9800000
  21.1700000  -5.1500000   1.3900000  22.2100000  -5.3900000   1.9900000
  19.9300000  -3.1900000   2.3400000  18.9800000  -3.7200000   2.4100000
  20.4900000  -3.3700000   3.2600000  19.6600000  -1.6800000   2.3500000
  19.1700000  -1.3600000   1.4300000  20.8500000  -0.7200000   2.5900000
  21.6800000  -1.0000000   1.9400000  21.2100000  -0.8100000   3.6100000
  20.5000000   0.3100000   2.5200000  18.6400000  -1.4100000   3.4600000
  18.2900000  -0.3800000   3.3900000  18.9200000  -1.6600000   4.4900000
  17.7200000  -1.9200000   3.1700000  20.4000000  -6.1700000   0.8800000
  19.5800000  -5.8200000   0.4000000  20.8800000  -7.6000000   0.6700000
  21.3900000  -7.9000000   1.5800000  21.8300000  -7.7800000  -0.5200000
  22.5500000  -8.7400000  -0.4500000  19.7200000  -8.5400000   0.5300000
  20.1100000  -9.4900000   0.1700000  18.9700000  -8.2500000  -0.2000000
  18.9400000  -8.8400000   1.8400000  18.4200000  -7.9600000   2.2400000
  19.7800000  -9.4700000   2.9700000  20.5200000  -8.8200000   3.4400000
  19.1100000  -9.7900000   3.7600000  20.3400000 -10.3200000   2.5900000
  17.8200000  -9.8300000   1.5100000  17.2700000  -9.4200000   0.6600000
  17.2800000  -9.9700000   2.4500000  18.0700000 -10.8600000   1.2600000
  21.9200000  -6.8700000  -1.5000000  21.2700000  -6.1000000  -1.5100000
  22.9000000  -6.8700000  -2.5900000  23.1100000  -7.9300000  -2.7200000
  24.1900000  -6.0400000  -2.3000000  25.0500000  -5.9900000  -3.1800000
  22.1700000  -6.3300000  -3.8300000  22.5000000  -5.3400000  -4.1400000
  21.1200000  -6.2600000  -3.5500000  22.0800000  -7.2100000  -5.0600000
  23.0600000  -7.0600000  -5.5100000  21.9900000  -8.2500000  -4.7400000
  21.0100000  -6.8800000  -6.0800000  20.8100000  -7.6800000  -6.7900000
  20.0500000  -6.7200000  -5.5900000  21.3100000  -5.6500000  -6.8600000
  20.7000000  -4.8500000  -6.7400000  22.2200000  -5.5300000  -7.8000000
  23.0200000  -6.4800000  -8.2000000  22.9300000  -7.3700000  -7.7300000
  23.6600000  -6.2700000  -8.9400000  22.3400000  -4.4400000  -8.4900000
  22.9600000  -4.3900000  -9.2900000  21.7400000  -3.6400000  -8.3400000
  24.2300000  -5.3600000  -1.1800000  23.4400000  -5.4900000  -0.5700000
  25.2900000  -4.4000000  -0.8300000  25.6400000  -3.8300000  -1.6900000
  26.5200000  -5.1100000  -0.3100000  27.6100000  -4.5800000  -0.5300000
  24.7000000  -3.4400000   0.1700000  24.3600000  -3.9900000   1.0500000
  23.9200000  -2.8100000  -0.2700000  25.7100000  -2.5700000   0.5500000
  26.5000000  -2.6100000   0.0000000  26.3800000  -6.3000000   0.1100000
 -12.2960000  12.0250000  -1.3080000 -12.0170000  11.4950000  -2.6780000
 -11.8220000  10.0320000  -2.7050000 -11.4100000   9.5190000  -4.0380000
 -11.0560000   8.0410000  -4.0150000 -12.0710000   7.1640000  -3.3140000
 -11.6060000   6.5560000  -2.0410000  -9.8130000   7.9100000  -3.3270000
  -8.7190000   7.7720000  -4.1030000  -8.8240000   7.3760000  -5.2180000
  -7.4360000   8.1850000  -3.4260000  -6.5010000   7.0680000  -3.1340000
  -5.4900000   6.7630000  -4.2120000  -5.7850000   6.7700000  -5.5370000
  -4.8500000   6.5240000  -6.5070000  -3.5650000   6.2420000  -6.1780000
  -2.6650000   6.0150000  -7.1800000  -1.2810000   6.0300000  -6.8170000
  -3.2360000   6.2060000  -4.8340000  -4.1970000   6.4440000  -3.8730000
 -11.9217783  11.3141130  -0.5566028 -11.7909865  12.9937696  -1.1797547
 -13.3804912  12.1570303  -1.1797547 -12.8660931  11.7469783  -3.3303403
 -11.0803937  11.9568766  -3.0235991 -11.0430729   9.7698899  -1.9738564
 -12.7900803   9.5694014  -2.4624651 -12.2388511   9.6711969  -4.7449950
 -10.5086699  10.0714038  -4.3420626 -11.0196880   7.7024194  -5.0609659
 -12.9576153   7.7771258  -3.0949337 -12.2755750   6.3262388  -3.9968654
 -12.0311591   7.1119069  -1.1923498 -11.9346600   5.5073004  -1.9939711
 -10.5078296   6.5985441  -1.9939711  -7.2104583   9.2304637  -3.1688298
  -6.5429531   6.5000375  -2.1929057  -6.8194740   6.9823812  -5.8448274
  -5.1450439   6.5555558  -7.5662230  -1.1894353   6.0309924  -5.7208180
  -0.7850726   5.1371772  -7.2255626  -0.8045399   6.9333617  -7.2255626
  -2.2018841   5.9862640  -4.5301571  -3.9216190   6.3768021  -2.8101502
