
  371  0.0000000e+00
   5.9270000  -3.4250000  11.0180000   5.3320000  -4.2410000  11.0060000
   5.5780000  -2.7780000  11.7100000   6.8160000  -3.7580000  11.3610000
   5.9660000  -2.5560000   9.8740000   5.0330000  -2.3850000   9.3370000
   6.7930000  -3.1810000   8.8300000   7.9050000  -3.6750000   9.0670000
   6.6280000  -1.1970000  10.1980000   7.7070000  -1.2940000  10.3180000
   6.3710000  -0.8320000  11.1930000   6.3790000  -0.1220000   9.1650000
   5.2880000   0.6930000   9.3210000   4.6770000   0.6130000  10.2080000
   7.1980000   0.0160000   8.0400000   8.1110000  -0.5270000   7.8430000
   4.8990000   1.5920000   8.2740000   4.0040000   2.1850000   8.3940000
   6.9030000   0.9470000   7.0150000   7.5510000   1.1310000   6.1710000
   5.7180000   1.7190000   7.1380000   5.2880000   2.5290000   6.1410000
   4.4430000   2.1860000   5.8410000   6.2360000  -3.2690000   7.5770000
   5.3530000  -2.8090000   7.4110000   6.7360000  -4.1620000   6.5020000
   7.0130000  -5.1400000   6.8970000   7.6960000  -3.7530000   6.1860000
   5.9130000  -4.3030000   5.1500000   4.8400000  -3.7490000   5.0530000
   6.4210000  -4.9240000   4.0970000   7.2790000  -5.4110000   4.3130000
   6.0640000  -4.8710000   2.6470000   6.2760000  -3.8630000   2.2920000
   4.5620000  -5.1950000   2.3120000   4.1060000  -6.3220000   2.4570000
   7.0340000  -5.8240000   1.9140000   6.6860000  -6.8560000   1.9690000
   7.0670000  -5.5470000   0.8610000   8.4640000  -5.7990000   2.2100000
   9.0060000  -4.9240000   2.9770000   9.2660000  -6.6260000   1.6610000
   3.8120000  -4.2010000   1.8310000   4.2000000  -3.2850000   2.0080000
   2.4570000  -4.2740000   1.2080000   2.0180000  -3.2770000   1.2420000
   1.7920000  -4.8120000   1.8820000   2.5080000  -4.7910000  -0.2230000
   3.5770000  -5.0230000  -0.7600000   1.3280000  -4.9090000  -0.8460000
   0.5060000  -4.6300000  -0.3290000   1.1810000  -5.4640000  -2.1560000
   0.8910000  -6.5100000  -2.0550000   2.1090000  -5.3430000  -2.7170000
   0.1170000  -4.7690000  -3.1050000  -0.2430000  -3.6290000  -2.8100000
  -0.4730000  -5.4550000  -4.1250000  -0.1130000  -6.3730000  -4.3430000
  -1.4860000  -4.9100000  -5.0800000  -1.1890000  -3.9160000  -5.4170000
  -2.8560000  -4.7410000  -4.5310000  -3.2090000  -5.4040000  -3.5840000
  -1.4770000  -5.9160000  -6.3310000  -2.3330000  -5.8280000  -7.0010000
  -1.4520000  -6.9320000  -5.9380000  -0.3500000  -5.5230000  -7.2650000
   0.5910000  -5.4490000  -6.7190000  -0.6340000  -4.5560000  -7.6810000
   0.0180000  -6.5100000  -8.4190000  -0.8730000  -7.0460000  -8.7450000
   0.6970000  -7.2180000  -7.9450000   0.5890000  -6.1020000  -9.6710000
  -0.0360000  -5.8660000 -10.4280000   1.8610000  -5.8440000  -9.7750000
   2.7300000  -5.9260000  -8.7460000   2.4150000  -5.9600000  -7.7870000
   3.6380000  -5.5120000  -8.9020000   2.3930000  -5.6380000 -10.9040000
   1.7580000  -5.6960000 -11.6870000   3.3750000  -5.7490000 -11.1130000
  -3.7090000  -3.8560000  -5.1380000  -3.3530000  -3.2370000  -5.8530000
  -5.0670000  -3.7280000  -4.6950000  -5.6890000  -3.2970000  -5.4790000
  -5.3480000  -4.7640000  -4.5010000  -5.1870000  -2.8430000  -3.3990000
  -4.2550000  -2.1970000  -2.9490000  -6.3580000  -2.8890000  -2.7720000
  -7.1010000  -3.4690000  -3.1360000  -6.6190000  -2.1890000  -1.5420000
  -6.6480000  -1.1250000  -1.7770000  -5.6040000  -2.4040000  -0.4250000
  -5.1980000  -3.5790000  -0.2000000  -7.9830000  -2.7120000  -1.0140000
  -8.1750000  -2.0750000  -0.1510000  -7.7650000  -3.7210000  -0.6640000
  -9.2270000  -2.8810000  -1.9320000  -9.6200000  -1.7300000  -2.6320000
  -9.2790000  -0.7620000  -2.2930000  -9.8230000  -4.1180000  -2.1940000
  -9.5290000  -4.9940000  -1.6360000 -10.5970000  -1.8320000  -3.6450000
 -10.7710000  -0.9090000  -4.1790000 -10.7240000  -4.2630000  -3.2630000
 -11.1840000  -5.2120000  -3.4920000 -11.1170000  -3.1030000  -3.9260000
 -11.8670000  -3.1750000  -4.6990000  -5.2010000  -1.3310000   0.1720000
  -5.4060000  -0.4960000  -0.3590000  -4.1570000  -1.3690000   1.1930000
  -3.3860000  -0.6800000   0.8460000  -3.7660000  -2.3550000   1.4450000
  -4.6450000  -0.7200000   2.4520000  -5.6770000  -0.0640000   2.4630000
  -3.9730000  -0.9060000   3.5320000  -3.0610000  -1.3170000   3.3920000
  -4.1730000  -0.4130000   4.9130000  -4.8210000  -1.0120000   5.5540000
  -4.7890000   0.4840000   4.9760000  -2.9040000  -0.0830000   5.6710000
  -1.7610000  -0.0850000   5.1970000  -3.0490000   0.0470000   7.0740000
  -3.9600000   0.1850000   7.4880000  -1.9940000   0.1910000   8.1400000
  -1.4750000   1.1450000   8.0480000  -0.9330000  -0.8670000   8.2450000
  -1.3460000  -1.9870000   8.0490000  -2.6990000   0.1650000   9.4640000
  -3.6590000   0.6800000   9.4270000  -2.7840000  -0.8930000   9.7120000
  -1.8610000   0.7560000  10.6360000  -0.9210000   0.2180000  10.7590000
  -1.6420000   1.8170000  10.5110000  -2.6330000   0.6090000  11.9610000
  -3.5880000   1.1220000  11.8450000  -2.6500000  -0.4600000  12.1760000
  -1.7270000   1.2440000  13.0110000  -1.6800000   2.2790000  12.6730000
  -0.7760000   0.7170000  12.9390000  -2.3410000   1.1630000  14.3730000
  -3.1150000   1.7910000  14.5350000  -1.6180000   1.3260000  15.0600000
  -2.6670000   0.2310000  14.5860000   0.3250000  -0.5320000   8.5850000
   0.4980000   0.4290000   8.8420000   1.4840000  -1.4240000   8.8630000
   1.2010000  -2.3630000   9.3390000   2.1320000  -0.8610000   9.5360000
   2.2810000  -1.6790000   7.6120000   3.4340000  -2.1710000   7.7550000
   1.8110000  -1.2680000   6.4280000   0.9680000  -0.7210000   6.5260000
   2.5110000  -1.3700000   5.1510000   2.9330000  -2.3740000   5.1080000
   1.8580000  -1.2610000   4.2840000   3.6390000  -0.3510000   4.9070000
   3.4120000   0.8230000   4.8900000   4.7930000  -0.9100000   4.5860000
   4.8640000  -1.9010000   4.7700000   5.9600000  -0.2540000   4.0580000
   5.6610000   0.7870000   3.9280000   6.8190000  -0.4760000   4.6900000
   6.2650000  -0.5760000   2.6240000   5.4270000  -1.1980000   1.9550000
   7.4760000  -0.2270000   2.2600000   7.9400000   0.2750000   3.0040000
   8.0960000  -0.3750000   0.9590000   7.6060000  -1.1870000   0.4220000
   9.1330000  -0.6910000   1.0650000   8.1700000   0.9120000   0.1640000
   7.7800000   1.9670000   0.6410000   8.5910000   0.8070000  -1.1550000
   8.9070000  -0.0980000  -1.4740000   8.8460000   1.9960000  -2.0240000
   9.3150000   2.7840000  -1.4350000   7.4970000   2.6300000  -2.5790000
   7.5550000   3.7880000  -3.0760000   9.7920000   1.6620000  -3.1650000
   9.3650000   0.7920000  -3.6640000   9.8540000   2.5010000  -3.8570000
  11.1730000   1.2520000  -2.6990000  11.1100000   0.3610000  -2.0740000
  11.4830000   2.1710000  -2.2000000  12.0610000   0.9420000  -3.9310000
  11.7460000   0.0600000  -4.7790000  13.1420000   1.5930000  -4.0890000
   6.3180000   1.9840000  -2.3980000   6.3170000   1.2320000  -1.7240000
   5.0140000   2.4520000  -2.8740000   4.2950000   1.6400000  -2.9830000
   5.2370000   2.8280000  -3.8730000   4.3350000   3.5730000  -2.0710000
   4.7200000   3.9970000  -0.9720000   3.2860000   4.1590000  -2.6040000
   2.9470000   3.7710000  -3.4730000   2.4730000   5.1340000  -1.9400000
   3.1370000   5.8480000  -1.4530000   1.4250000   4.4450000  -0.9910000
   1.2030000   3.2490000  -1.0710000   1.6520000   6.0030000  -3.0190000
   1.2420000   6.8220000  -2.4270000   0.4960000   5.3620000  -3.7100000
   0.8420000   4.5910000  -4.3990000  -0.1830000   4.9410000  -2.9690000
   2.6420000   6.6480000  -4.0020000   3.0790000   5.9060000  -4.6700000
   3.4330000   7.1360000  -3.4320000   2.1270000   7.3790000  -4.6270000
  -0.3880000   6.4070000  -4.4390000   0.0960000   6.7290000  -5.3610000
  -0.6570000   7.2240000  -3.7690000  -1.2860000   5.8690000  -4.7410000
   0.8250000   5.2970000  -0.1730000   1.0250000   6.2820000  -0.2700000
   0.1440000   4.9440000   1.0860000   0.8480000   4.3120000   1.6280000
  -0.0920000   5.8270000   1.6810000  -1.1470000   4.1730000   0.9810000
  -1.8910000   4.4000000   0.0200000  -1.4080000   3.2920000   1.9080000
  -0.7380000   3.1530000   2.6510000  -2.7020000   2.5240000   2.0990000
  -2.9640000   1.9190000   1.2310000  -2.5060000   1.8310000   2.9170000
  -3.9520000   3.3810000   2.2780000  -3.8890000   4.6270000   2.3240000
  -5.1040000   2.7300000   2.1600000  -5.0550000   1.7270000   2.0500000
  -6.4230000   3.3800000   1.9010000  -6.4530000   4.3120000   2.4660000
  -7.2170000   2.6630000   2.1100000  -6.6350000   3.6500000   0.4030000
  -7.7350000   3.8920000   0.0130000  -5.6030000   3.6210000  -0.4080000
  -4.6610000   3.6170000  -0.0460000  -5.6770000   3.4780000  -1.8980000
  -6.7130000   3.6570000  -2.1870000  -5.3790000   2.0500000  -2.3620000
  -5.0760000   1.2290000  -1.4580000  -4.7420000   4.5810000  -2.4920000
  -3.7360000   4.2880000  -2.1930000  -4.8710000   4.4940000  -3.5700000
  -5.0020000   6.0260000  -2.1100000  -4.6300000   6.1500000  -1.0940000
  -4.2220000   6.9670000  -2.9710000  -3.2660000   6.4490000  -3.0460000
  -4.1090000   7.9300000  -2.4740000  -4.6590000   7.1900000  -3.9440000
  -6.4390000   6.4420000  -2.1970000  -6.5750000   7.5160000  -2.3200000
  -6.8870000   5.9950000  -3.0850000  -6.9640000   6.2240000  -1.2670000
  -5.5660000   1.8150000  -3.6460000  -5.8810000   2.5380000  -4.2770000
  -5.3630000   0.5530000  -4.3190000  -6.0330000  -0.1080000  -3.7690000
  -4.3970000   0.0880000  -4.1210000  -5.7040000   0.5370000  -5.8290000
  -6.5720000   1.2810000  -6.2620000  -4.9880000  -0.2420000  -6.5770000
  -4.2060000  -0.7120000  -6.1420000  -4.8530000  -0.2080000  -8.0590000
  -5.8450000  -0.1560000  -8.5070000  -4.3410000   0.7340000  -8.2530000
  -3.9240000  -1.2960000  -8.6720000  -3.7110000  -2.3230000  -8.0140000
  -3.3860000  -1.1430000  -9.9240000  -3.4480000  -0.2120000 -10.3110000
  -2.7160000  -2.2060000 -10.6710000  -3.2790000  -3.1170000 -10.4650000
  -1.2510000  -2.5110000 -10.1970000  -0.6350000  -3.4330000 -10.6550000
  -2.8220000  -1.9090000 -12.1310000  -2.8930000  -2.7810000 -12.7800000
  -3.7820000  -1.3990000 -12.2020000  -1.6390000  -1.2190000 -12.5760000
  -1.1060000  -1.8350000 -13.0840000  -0.7180000  -1.8030000  -9.2090000
  -1.2280000  -1.0180000  -8.8300000   0.7010000  -1.9650000  -8.8240000
   1.3930000  -1.1840000  -9.1400000   1.1000000  -2.8440000  -9.3290000
   0.7420000  -2.0240000  -7.2270000  -0.2080000  -1.9110000  -6.4900000
   1.9000000  -2.4140000  -6.7240000   2.6340000  -2.4990000  -7.4130000
   2.1800000  -2.5270000  -5.3400000   1.4230000  -3.1480000  -4.8610000
   2.2640000  -1.1840000  -4.6520000   2.4390000  -0.1340000  -5.2080000
   3.5000000  -3.2540000  -5.1620000   4.2630000  -2.5060000  -5.3770000
   3.7010000  -3.4590000  -4.1110000   3.7850000  -4.6420000  -5.8330000
   2.9430000  -5.5600000  -5.8520000   4.9580000  -4.8920000  -6.2160000
   2.1280000  -1.2230000  -3.3440000   1.9410000  -2.1470000  -2.9810000
   1.8470000  -0.1070000  -2.4320000   2.4820000   0.7550000  -2.6380000
   0.8060000   0.1510000  -2.6320000   2.1680000  -0.4240000  -0.8830000
   2.5500000  -1.5350000  -0.4870000   1.9520000   0.6650000  -0.1410000
   1.6330000   1.5010000  -0.6090000   2.2640000   0.8100000   1.2590000
   2.9460000   1.6530000   1.3680000   2.7070000  -0.1450000   1.5410000
   1.1130000   1.0410000   2.1870000   0.0230000   0.3860000   2.1100000
   1.3010000   1.8920000   3.1880000   2.2590000   2.0900000   3.4410000
   0.3830000   2.0700000   4.3390000   0.7320000   1.4420000   5.1600000
  -0.6270000   1.7340000   4.1040000   0.2920000   3.5020000   4.8720000
   0.6330000   4.4600000   4.2190000  -0.2650000   3.5210000   6.0460000
  -0.4570000   2.6520000   6.5220000  -0.5270000   4.6900000   6.9390000
   0.2040000   5.4030000   6.5590000  -0.2960000   4.4000000   8.4150000
  -0.1230000   3.2210000   8.7670000  -1.9450000   5.4110000   6.7360000
  -1.9920000   6.3110000   7.3490000  -2.0180000   5.6900000   5.6850000
  -3.1540000   4.5690000   6.8700000  -3.2880000   3.5360000   7.7690000
  -2.5230000   3.2550000   8.4770000  -4.4270000   4.6300000   6.1770000
  -4.5770000   2.9100000   7.5760000  -4.9420000   2.1220000   8.0910000
  -5.3400000   3.6930000   6.6520000  -4.9890000   5.5380000   5.1940000
  -4.3740000   6.3030000   4.7430000  -6.6580000   3.4910000   6.1040000
  -7.4350000   2.9350000   6.6070000  -6.2990000   5.3740000   4.7190000
  -6.7180000   5.9950000   3.9410000  -7.1900000   4.3620000   5.1620000
  -8.2510000   4.3120000   4.9710000  -0.2150000   5.3380000   9.2410000
   0.8330000  -1.6860000   0.2680000   0.4480000  -0.3620000   0.0370000
   0.2980000   0.0860000  -1.2380000   0.6070000   1.4090000  -1.4790000
   0.4830000   1.9340000  -2.7450000   0.0610000   1.1360000  -3.7800000
  -0.0650000   1.7210000  -5.1200000  -1.0730000   1.6770000  -5.5790000
   0.8990000   2.4840000  -5.8730000   2.2350000   2.2300000  -5.7410000
   3.1560000   2.9510000  -6.4680000   2.7420000   3.9450000  -7.3220000
   1.3940000   4.1900000  -7.4750000   0.4620000   3.4540000  -6.7600000
  -0.2700000  -0.1970000  -3.5440000  -0.7100000  -0.9680000  -4.5510000
  -0.1450000  -0.7090000  -2.2720000   0.8861258  -1.8686976   1.3514202
   0.0954741  -2.3662973  -0.1828339   1.8203206  -1.8647370  -0.1828339
   0.9546512   2.0480906  -0.6539534   0.7217243   2.9921007  -2.9278488
   2.5768697   1.4452181  -5.0501726   4.2286264   2.7301357  -6.3645998
   3.4803761   4.5403951  -7.8790507   1.0560215   4.9741055  -8.1685049
  -0.6139075   3.6384351  -6.8956712  -0.9450895  -1.9149221  -4.3831563
  -0.4009709  -1.7614216  -2.0799382
