
  315  0.0000000e+00
  -4.4500000   1.7100000   5.9300000  -4.2800000   2.1400000   5.0400000
  -4.8700000   0.8000000   5.8100000  -5.0800000   2.2800000   6.4800000
  -3.1700000   1.5200000   6.6200000  -3.3500000   1.3100000   7.6800000
  -2.3300000   2.7900000   6.6200000  -1.1300000   2.7800000   6.3200000
  -2.3500000   0.3500000   6.0600000  -1.9800000   0.6200000   5.0600000
  -1.3800000   0.2900000   6.5700000  -3.0000000  -0.9700000   6.1700000
  -3.1900000  -1.5900000   7.4000000  -2.8000000  -1.2100000   8.3300000
  -3.5300000  -1.6100000   4.9600000  -3.5200000  -1.0400000   4.0500000
  -3.7800000  -2.8400000   7.4600000  -3.9100000  -3.3400000   8.4100000
  -4.1100000  -2.8700000   5.1000000  -4.5600000  -3.3000000   4.2100000
  -4.2000000  -3.4800000   6.3200000  -4.5600000  -4.4900000   6.4000000
  -2.8100000   3.9700000   7.0700000  -3.7100000   3.9600000   7.5200000
  -1.9200000   5.1300000   7.3100000  -2.5200000   5.9500000   7.7200000
  -1.1100000   4.8200000   7.9600000  -1.1800000   5.7700000   6.0100000
  -0.2900000   6.6100000   6.1700000  -1.4300000   5.2200000   4.7800000
  -2.0600000   4.4300000   4.7100000  -0.5800000   5.5900000   3.6100000
   0.1200000   6.4000000   3.8300000  -1.4900000   5.9700000   2.4200000
  -2.5000000   5.2700000   2.1500000   0.2300000   4.3800000   3.1700000
  -0.4000000   3.4900000   3.1900000   0.6200000   4.5700000   2.1700000
   1.3800000   4.2600000   4.2300000   1.0000000   4.3700000   5.2500000
   2.2000000   4.9700000   4.1100000   1.9100000   2.8200000   4.0700000
   2.4900000   2.9000000   3.1500000   1.1400000   2.0600000   4.2200000
   2.9800000   2.4500000   5.0700000   3.9100000   2.7500000   4.7800000
   2.7600000   1.7900000   6.2300000   1.5300000   1.6200000   6.5600000
   1.3500000   0.9600000   7.3100000   0.8100000   2.1600000   6.1100000
   3.7500000   1.4700000   6.9600000   3.6600000   0.9300000   7.8100000
   4.6800000   1.7800000   6.7200000  -0.9900000   6.8800000   1.5400000
  -0.1000000   7.2900000   1.7800000  -1.6000000   7.1000000   0.2000000
  -1.7200000   8.1700000   0.0500000  -2.5900000   6.6400000   0.1700000
  -0.7300000   6.6200000  -0.9600000   0.4700000   6.3900000  -0.8400000
  -1.3800000   6.3800000  -2.1700000  -2.3800000   6.3200000  -2.1400000
  -0.7200000   6.0100000  -3.4400000  -0.7700000   4.9400000  -3.6100000
   0.7400000   6.3300000  -3.6100000   1.2200000   7.4800000  -3.6800000
  -1.6000000   6.6300000  -4.5200000  -1.8200000   7.6600000  -4.2400000
  -1.0500000   6.6300000  -5.4600000  -2.9200000   5.9000000  -4.7900000
  -2.6700000   4.8500000  -4.9600000  -3.5200000   5.9300000  -3.8700000
  -3.4500000   6.5400000  -6.0300000  -2.7900000   6.2400000  -6.8500000
  -3.5700000   7.6200000  -5.9200000  -4.8300000   5.9300000  -6.3500000
  -5.4000000   5.9600000  -5.4300000  -4.8600000   4.8700000  -6.6000000
  -5.5400000   6.6300000  -7.4300000  -6.3700000   6.0900000  -7.5900000
  -4.9100000   6.5300000  -8.2100000  -5.7600000   7.5800000  -7.1700000
   1.5700000   5.2800000  -3.5500000   1.2400000   4.3500000  -3.3300000
   3.0600000   5.3700000  -3.6900000   3.2900000   6.2600000  -4.2700000
   3.3600000   4.4200000  -4.1400000   3.8700000   5.4600000  -2.3600000
   5.1000000   5.6700000  -2.3500000   3.2000000   5.2400000  -1.2000000
   2.1900000   5.1300000  -1.2200000   3.7600000   5.4100000   0.1500000
   2.9100000   5.5800000   0.8000000   4.5300000   6.1800000   0.1300000
   4.4500000   4.1500000   0.6600000   5.6800000   4.0600000   0.7400000
   3.5700000   3.0700000   0.7800000   2.5800000   3.2700000   0.6800000
   3.9600000   1.7500000   1.4300000   4.6300000   1.9600000   2.2600000
   3.0900000   1.1700000   1.7400000   4.7500000   0.7900000   0.5300000
   4.5500000  -0.4000000   0.6100000   5.5700000   1.3500000  -0.3200000
   5.7900000   2.3200000  -0.1700000   6.3400000   0.7000000  -1.3300000
   5.7000000   0.0700000  -1.9500000   7.4700000  -0.1300000  -0.6500000
   8.4900000   0.4100000  -0.2100000   7.0300000   1.7200000  -2.2800000
   7.8300000   2.3100000  -1.8300000   6.3000000   2.4500000  -2.6400000
   7.7400000   1.0600000  -3.4600000   7.5700000  -0.2100000  -3.6500000
   8.5500000   1.7700000  -4.2000000   7.3000000  -1.4300000  -0.4500000
   6.4900000  -1.8400000  -0.8900000   8.1600000  -2.2900000   0.3300000
   7.8100000  -3.3200000   0.2600000   9.1900000  -2.2500000  -0.0300000
   8.1600000  -2.0100000   1.8100000   9.1100000  -2.3500000   2.5000000
   7.0400000  -1.4300000   2.3300000   6.2100000  -1.1600000   1.8100000
   6.7200000  -1.4500000   3.7200000   7.6200000  -1.7700000   4.2400000
   5.5000000  -2.4200000   3.9500000   4.3500000  -2.1600000   3.6000000
   6.2700000  -0.0300000   4.2600000   5.3700000   0.1000000   3.6700000
   5.8700000  -0.0100000   5.2700000   7.2400000   1.1600000   4.0500000
   7.2600000   1.2900000   2.9700000   8.2500000   0.8800000   4.3500000
   6.7800000   2.4100000   4.7200000   5.6400000   2.7500000   4.9200000
   7.6900000   3.2300000   4.9500000   5.7400000  -3.5200000   4.6400000
   6.7100000  -3.6800000   4.8800000   4.7900000  -4.3800000   5.3000000
   4.4100000  -4.0700000   6.2700000   5.3900000  -5.2500000   5.5900000
   3.8000000  -4.9600000   4.2700000   4.1700000  -5.6600000   3.3300000
   2.5100000  -4.7700000   4.5200000   2.3400000  -4.1100000   5.2600000
   1.4400000  -5.3400000   3.6900000   1.5700000  -6.4200000   3.6900000
   1.4500000  -4.8300000   2.2400000   1.1800000  -5.5600000   1.2500000
   0.1300000  -5.0000000   4.4100000   0.0900000  -3.9400000   4.6600000
   0.1000000  -5.8200000   5.7100000   0.0400000  -6.8500000   5.3600000
   1.0600000  -5.9300000   6.2200000  -1.0900000  -5.2400000   3.6000000
  -1.1900000  -4.5600000   2.7600000  -1.1100000  -6.2600000   3.2000000
  -2.0000000  -5.1200000   4.1800000  -0.9700000  -5.4500000   6.7500000
  -0.8700000  -6.1100000   7.6100000  -0.7100000  -4.4400000   7.0700000
  -1.9300000  -5.5400000   6.2600000   1.8800000  -3.5200000   2.0500000
   2.0600000  -2.9500000   2.8700000   2.1500000  -3.0200000   0.6700000
   1.3100000  -3.2400000   0.0200000   2.3200000  -1.9400000   0.7300000
   3.3700000  -3.7300000   0.0000000   3.3100000  -4.0700000  -1.1900000
   4.3600000  -4.1800000   0.7300000   4.2700000  -4.1200000   1.7400000
   5.3200000  -5.1200000   0.2700000   5.9600000  -5.2600000   1.1500000
   5.9200000  -4.7600000  -0.5600000   4.7700000  -6.5300000  -0.0400000
   5.1500000  -7.0600000  -1.0500000   3.8200000  -7.0200000   0.7600000
   3.6000000  -6.4600000   1.5700000   3.0900000  -8.2600000   0.6000000
   3.8900000  -9.0000000   0.6300000   2.3200000  -8.4000000   1.3600000
   2.2900000  -8.2500000  -0.6900000   2.3600000  -9.2600000  -1.5200000
   1.6600000  -7.0700000  -1.0300000   1.7400000  -6.3100000  -0.3800000
   0.8400000  -6.8800000  -2.2400000   0.1700000  -7.7200000  -2.4400000
   1.7800000  -6.7600000  -3.4900000   1.5200000  -7.3900000  -4.5500000
   0.0700000  -5.5400000  -2.0600000  -0.4100000  -5.2700000  -3.0100000
   0.6900000  -4.7300000  -1.6700000  -1.1200000  -5.7000000  -1.0300000
  -0.7700000  -6.0700000  -0.0700000  -1.8100000  -4.3500000  -0.8300000
  -1.0800000  -3.6900000  -0.3600000  -2.5500000  -4.6000000  -0.0700000
  -2.1800000  -4.0000000  -1.8000000  -2.1800000  -6.7400000  -1.4100000
  -1.7600000  -7.7400000  -1.3200000  -2.9100000  -6.7200000  -0.6100000
  -2.5400000  -6.6900000  -2.4400000   2.8200000  -5.8800000  -3.3900000
   2.9100000  -5.3800000  -2.5200000   3.8700000  -5.5600000  -4.3700000
   4.3700000  -6.4800000  -4.6700000   4.6000000  -4.9300000  -3.8600000
   3.3100000  -4.7500000  -5.5800000   4.0800000  -4.1900000  -6.3700000
   2.0000000  -4.6200000  -5.6800000   1.4600000  -5.1800000  -5.0300000
   1.2200000  -3.8400000  -6.7200000   0.2700000  -4.2900000  -6.9900000
   1.9300000  -3.6800000  -7.5300000   0.8300000  -2.4400000  -6.3200000
   0.4500000  -2.2100000  -5.2000000   0.9200000  -1.4200000  -7.2200000
   1.1500000  -1.6900000  -8.1600000   0.8200000   0.0400000  -6.9800000
   1.6100000   0.1800000  -6.2400000  -0.4500000   0.5600000  -6.3600000
  -1.5400000   0.2900000  -6.7700000   1.1600000   1.0000000  -8.2000000
   0.7000000   1.9600000  -7.9800000   2.2300000   1.1000000  -8.4000000
   0.6300000   0.4600000  -9.4500000  -0.2100000   0.8700000  -9.6500000
  -0.2000000   1.2000000  -5.2200000   0.7600000   1.2700000  -4.8900000
  -1.2500000   1.7100000  -4.3300000  -0.7500000   2.0500000  -3.4200000
  -1.8300000   2.5300000  -4.7600000  -2.0900000   0.6400000  -3.7200000
  -3.1000000   1.0200000  -3.1800000  -1.7400000  -0.6700000  -3.8900000
  -0.9300000  -0.9100000  -4.4400000  -2.5700000  -1.8000000  -3.4700000
  -2.0500000  -2.7500000  -3.5900000  -2.6900000  -1.6100000  -2.4100000
  -3.9800000  -1.7000000  -4.0700000  -4.0000000  -1.7900000  -5.2900000
  -4.9700000  -1.4000000  -3.2600000  -4.7200000  -1.2600000  -2.2900000
  -6.3100000  -1.1200000  -3.6300000  -6.5900000  -1.9000000  -4.3600000
  -6.6200000   0.2200000  -4.3300000  -7.7600000   0.5200000  -4.8300000
  -7.1800000  -1.3800000  -2.3700000  -8.2100000  -1.3000000  -2.7300000
  -7.2200000  -0.5200000  -1.7000000  -7.0200000  -2.6900000  -1.5900000
  -7.7700000  -3.8000000  -1.7700000  -8.5900000  -3.9200000  -2.4600000
  -6.1200000  -2.9400000  -0.4400000  -7.4600000  -4.7000000  -0.7200000
  -7.8400000  -5.6200000  -0.5600000  -6.5000000  -4.1800000   0.1500000
  -5.0700000  -2.2800000   0.3200000  -4.7900000  -1.3000000  -0.0300000
  -5.8600000  -4.8300000   1.1900000  -6.2300000  -5.8200000   1.4000000
  -4.4900000  -2.8700000   1.4700000  -3.7200000  -2.3100000   1.9800000
  -4.7300000  -4.2200000   1.7800000  -4.1000000  -4.6600000   2.5400000
  -5.5900000   1.0600000  -4.5700000  -4.7200000   0.8100000  -4.1200000
  -5.7200000   2.3800000  -5.2500000  -6.3700000   2.3100000  -6.1200000
  -4.7300000   2.6200000  -5.6500000  -6.1300000   3.5500000  -4.3600000
  -6.8500000   4.4200000  -4.7900000  -5.7800000   3.5500000  -3.1100000
  -5.0600000   2.8700000  -2.9300000  -6.1700000   4.5300000  -2.1100000
  -6.8700000   5.2300000  -2.5600000  -4.9500000   5.3400000  -1.6500000
  -3.8400000   4.7300000  -1.7600000  -6.8000000   3.9400000  -0.8700000
  -6.9300000   4.7400000  -0.1300000  -6.2000000   3.1400000  -0.4500000
  -8.2000000   3.3300000  -1.0600000  -8.5800000   2.4900000  -0.2400000
  -8.9800000   3.7600000  -1.8700000  -5.0600000   6.5100000  -1.1900000
  -6.4750000   1.2070000   2.2670000  -5.1620000   0.7850000   2.5570000
  -4.1050000   1.3390000   1.8870000  -2.8490000   0.7680000   2.0610000
  -1.7500000   1.2960000   1.3980000  -1.8930000   2.3900000   0.5490000
  -0.7150000   2.9820000  -0.1780000  -0.4290000   4.1390000   0.0520000
   0.1260000   2.2120000  -1.1230000   0.0550000   0.8270000  -1.2000000
   0.8520000   0.1320000  -2.0810000   1.7360000   0.8110000  -2.9050000
   1.8050000   2.1970000  -2.8530000   0.9890000   2.9100000  -1.9790000
  -3.1500000   2.9610000   0.3840000  -3.2820000   4.0350000  -0.4340000
  -4.2430000   2.4370000   1.0550000  -7.0197768   1.3820920   3.2064472
  -6.4402061   2.1392111   1.6841004  -6.9898452   0.4290781   1.6841004
  -2.7266428  -0.1014737   2.7236041  -0.7570212   0.8460199   1.5446663
  -0.6448028   0.2804170  -0.5507519   0.7873074  -0.9649418  -2.1313339
   2.3817584   0.2528917  -3.5989100   2.5083231   2.7344885  -3.5060258
   1.0211592   4.0093722  -1.9603812  -4.1700625   4.4533015  -0.5623313
  -5.2327560   2.8990730   0.9251092
