
  550  0.0000000e+00
  -4.6200000   0.6500000 -10.9300000  -5.3200000   0.8600000 -11.6300000
  -5.0200000   0.6900000 -10.0100000  -4.3300000  -0.3100000 -11.0400000
  -3.4600000   1.5100000 -11.0300000  -2.8300000   1.4200000 -11.9100000
  -2.5100000   1.2000000  -9.9100000  -2.9300000   1.1500000  -8.7500000
  -3.9000000   2.9500000 -11.0800000  -4.7000000   3.3000000 -10.4300000
  -4.2000000   3.1700000 -12.1100000  -2.7900000   3.7200000 -10.8500000
  -2.7600000   4.4800000 -11.4300000  -1.2200000   0.9700000 -10.2900000
  -0.8400000   0.9400000 -11.2300000  -0.2800000   0.6300000  -9.2100000
  -0.7500000  -0.1400000  -8.6000000  -0.0300000   1.8500000  -8.2000000
   0.0300000   1.6200000  -7.0100000   0.9600000   0.1400000  -9.8800000
   1.3200000   0.9200000 -10.5500000   0.7600000  -0.7300000 -10.5100000
   2.1900000  -0.1500000  -9.0100000   1.9400000  -0.9100000  -8.2600000
   2.5700000   0.7400000  -8.5100000   3.2800000  -0.7200000  -9.9400000
   2.9700000  -1.6800000 -10.3700000   3.5500000  -0.0900000 -10.7900000
   4.5500000  -0.9200000  -9.0500000   4.7700000   0.0600000  -8.6300000
   4.3100000  -1.6600000  -8.2900000   5.6400000  -1.3000000  -9.9400000
   6.5100000  -1.2400000  -9.4200000   5.6400000  -2.2700000 -10.2200000
   5.6800000  -0.7200000 -10.7600000   0.0800000   3.0500000  -8.7600000
   0.0000000   3.0900000  -9.7700000   0.3100000   4.3300000  -8.0200000
   1.2500000   4.3200000  -7.4700000  -0.8100000   4.6300000  -7.0400000
  -0.5100000   4.9000000  -5.9000000   0.5000000   5.4200000  -9.0900000
  -0.5000000   5.7200000  -9.3900000   0.9200000   6.3100000  -8.6200000
   1.3400000   5.1100000 -10.3900000   0.7100000   4.4600000 -10.9900000
   1.4100000   6.0500000 -10.9500000   2.7000000   4.4500000 -10.1800000
   3.4300000   4.9500000  -9.2800000   3.0400000   3.6000000 -11.0700000
  -2.0100000   4.4100000  -7.5100000  -2.1100000   4.1700000  -8.4800000
  -3.2100000   4.3500000  -6.6100000  -3.3300000   5.3100000  -6.1100000
  -3.1400000   3.4700000  -5.3700000  -3.5800000   3.8300000  -4.2800000
  -4.3700000   4.0900000  -7.6000000  -4.3700000   4.8200000  -8.4100000
  -4.2200000   3.1500000  -8.1200000  -5.7300000   4.1000000  -6.9200000
  -6.3500000   3.6700000  -7.7100000  -5.7400000   3.4600000  -6.0400000
  -6.2200000   5.5500000  -6.6400000  -6.3800000   6.3700000  -7.5900000
  -6.3800000   5.9700000  -5.5000000  -2.7600000   2.1800000  -5.5700000
  -2.4100000   2.0100000  -6.5000000  -2.5900000   1.0900000  -4.5800000
  -3.4400000   1.0200000  -3.9000000  -1.4700000   1.4600000  -3.6500000
  -1.7600000   1.5300000  -2.4900000  -2.2800000  -0.2600000  -5.1800000
  -1.9300000  -0.8800000  -4.3600000  -1.5200000  -0.2100000  -5.9600000
  -3.4800000  -0.9200000  -5.8700000  -3.9600000  -0.1600000  -6.4800000
  -2.8900000  -2.1400000  -6.6700000  -2.0900000  -1.8900000  -7.3600000
  -3.5900000  -2.5800000  -7.3800000  -2.5500000  -2.9400000  -6.0100000
  -4.5100000  -1.5000000  -4.9100000  -4.1300000  -2.3500000  -4.3500000
  -4.8700000  -0.7500000  -4.2100000  -5.3500000  -1.9200000  -5.4700000
  -0.2500000   1.7400000  -4.0800000  -0.0700000   1.6400000  -5.0700000
   0.8300000   2.2600000  -3.2300000   1.0000000   1.5000000  -2.4600000
   0.4600000   3.5500000  -2.4400000   0.8100000   3.6800000  -1.2500000
   2.2100000   2.3400000  -3.9400000   1.9900000   2.7800000  -4.9100000
   2.7800000   0.9300000  -4.1800000   3.7500000   0.7100000  -3.7200000
   2.1500000   0.1900000  -3.6800000   3.2300000   3.1600000  -3.2000000
   4.1900000   3.1900000  -3.7100000   3.3700000   2.7700000  -2.2000000
   2.9200000   4.2000000  -3.0800000   2.9200000   0.6400000  -5.6500000
   1.9600000   0.4500000  -6.1200000   3.5500000  -0.2500000  -5.7100000
   3.4600000   1.4800000  -6.1000000  -0.3500000   4.4300000  -3.0100000
  -0.7700000   4.3500000  -3.9200000  -0.9200000   5.5800000  -2.2500000
  -0.1100000   6.1600000  -1.8000000  -1.8900000   5.1700000  -1.1400000
  -1.7700000   5.7100000  -0.0100000  -1.6200000   6.5800000  -3.1600000
  -0.8200000   7.0300000  -3.7400000  -2.2900000   6.0100000  -3.8000000
  -2.4700000   7.7000000  -2.6000000  -3.2100000   7.3900000  -1.8600000
  -1.9000000   8.4600000  -2.0700000  -3.1900000   8.5500000  -3.6900000
  -2.4500000   8.9600000  -4.3800000  -3.6500000   9.4400000  -3.2700000
  -4.2800000   7.6600000  -4.3800000  -3.7400000   6.8000000  -4.7600000
  -5.1200000   7.4200000  -3.7200000  -4.9600000   8.3800000  -5.4300000
  -5.6500000   7.8000000  -5.8900000  -4.3400000   8.7600000  -6.1300000
  -5.5800000   9.1000000  -5.1000000  -2.9300000   4.3400000  -1.4100000
  -2.9400000   3.9500000  -2.3500000  -3.8900000   3.8200000  -0.4500000
  -4.4100000   4.6100000   0.1000000  -3.2300000   2.8900000   0.5600000
  -3.5300000   2.9300000   1.7500000  -4.9800000   2.9600000  -1.1600000
  -4.4500000   2.2500000  -1.7900000  -5.5600000   3.6100000  -1.8200000
  -6.0300000   2.3000000  -0.2900000  -6.8000000   1.8600000  -0.9200000
  -5.6800000   1.4500000   0.2900000  -6.7500000   3.2900000   0.7000000
  -6.0000000   3.5400000   1.4400000  -7.0400000   4.1300000   0.0600000
  -8.0400000   2.6200000   1.2400000  -7.7100000   2.0000000   2.0800000
  -8.4800000   1.9300000   0.5200000  -8.8300000   3.6900000   1.8300000
  -9.4500000   3.2800000   2.5200000  -8.3200000   4.3100000   2.4500000
  -9.3200000   4.3000000   1.2000000  -2.1400000   2.2300000   0.1600000
  -2.0100000   2.3700000  -0.8300000  -1.1600000   1.4900000   0.9100000
  -1.6500000   0.5800000   1.2500000  -0.3600000   1.3600000   0.1800000
  -0.5900000   2.3500000   2.0700000  -0.6300000   2.0500000   3.2500000
  -0.0500000   3.4900000   1.6900000   0.0000000   3.6100000   0.6900000
   0.6200000   4.5400000   2.5600000   1.2200000   3.9900000   3.2900000
  -0.3700000   5.3200000   3.4700000  -0.0800000   5.8100000   4.5400000
   1.5400000   5.3800000   1.6900000   1.8600000   6.2600000   2.2400000
   1.0700000   5.7200000   0.7700000   2.7200000   4.5100000   1.3100000
   3.2400000   4.1600000   2.2000000   2.3600000   3.5900000   0.8500000
   3.6800000   5.1600000   0.2700000   3.1700000   5.4100000  -0.6600000
   4.0200000   6.1100000   0.6700000   4.8800000   4.2000000   0.0400000
   4.6400000   3.2300000  -0.3800000   5.3600000   3.8800000   0.9700000
   5.8800000   4.9200000  -0.7400000   5.3800000   5.3100000  -1.5300000
   6.5700000   4.2500000  -1.0500000   6.4000000   5.6200000  -0.2400000
  -1.6800000   5.3800000   3.1500000  -2.0300000   5.2300000   2.2200000
  -2.7200000   5.7300000   4.0900000  -2.4400000   6.6200000   4.6500000
  -2.9300000   4.6700000   5.1700000  -3.0600000   5.0700000   6.3200000
  -3.9900000   6.0900000   3.3800000  -4.8000000   6.1000000   4.1200000
  -4.2300000   5.3400000   2.6300000  -3.9200000   7.4200000   2.6700000
  -3.8700000   8.1900000   3.4400000  -3.0800000   7.5600000   1.9900000
  -5.3100000   7.5700000   1.9500000  -6.3200000   7.2400000   2.5500000
  -5.3800000   8.2200000   0.8500000  -2.8800000   3.4100000   4.8000000
  -2.5400000   3.1100000   3.8900000  -3.2900000   2.4000000   5.7300000
  -4.0700000   2.8200000   6.3700000  -2.1700000   2.1600000   6.7000000
  -2.4600000   1.7300000   7.8000000  -3.7100000   1.1000000   4.9900000
  -2.8600000   0.9400000   4.3200000  -3.8100000   0.2700000   5.7000000
  -5.0100000   1.0700000   4.2600000  -5.1000000   2.0800000   3.8700000
  -4.9800000   0.0300000   3.0600000  -4.9000000  -0.9800000   3.4600000
  -5.8600000   0.1700000   2.4300000  -4.0700000   0.2000000   2.4900000
  -6.2200000   0.7900000   5.1700000  -7.1700000   0.8800000   4.6400000
  -6.0900000  -0.1200000   5.7500000  -6.1800000   1.6900000   5.7900000
  -0.9300000   2.5200000   6.3200000  -0.7600000   2.6700000   5.3300000
   0.1200000   2.6500000   7.3100000   0.1400000   1.6600000   7.7600000
  -0.2000000   3.7300000   8.3400000  -0.1300000   3.4200000   9.5200000
   1.5800000   2.8000000   6.7400000   1.5900000   3.4400000   5.8500000
   2.0700000   1.4700000   6.0800000   1.3000000   1.1000000   5.4000000
   2.2200000   0.7600000   6.8900000   2.6200000   3.4500000   7.5900000
   2.2900000   4.4500000   7.8700000   3.5500000   3.6700000   7.0700000
   3.0000000   2.8400000   8.4100000   3.3500000   1.7200000   5.3000000
   3.2800000   2.6800000   4.7800000   4.1700000   1.7000000   6.0100000
   3.5100000   0.8200000   4.7100000  -0.6100000   4.9500000   7.9800000
  -0.7900000   5.1500000   7.0000000  -0.8500000   6.1100000   8.8400000
   0.0400000   6.2700000   9.4500000  -2.0000000   5.8600000   9.8400000
  -1.9200000   6.1700000  11.0200000  -1.0000000   7.4200000   8.0900000
  -1.6900000   7.1500000   7.2900000  -1.4300000   8.1700000   8.7400000
   0.3100000   7.8900000   7.5400000   0.9500000   8.3000000   8.3200000
   0.8700000   7.0800000   7.0700000   0.0000000   9.0000000   6.4900000
  -0.6400000   8.5500000   5.7400000  -0.6700000   9.7300000   6.9400000
   1.1900000   9.6700000   5.7800000   1.8800000   8.9400000   5.3600000
   1.7600000  10.2600000   6.4900000   0.6700000  10.5400000   4.6800000
   1.4400000  11.0500000   4.2700000  -0.0700000  11.1100000   5.0600000
   0.3500000  10.0100000   3.8800000  -3.0400000   5.1100000   9.3800000
  -3.1000000   5.1400000   8.3700000  -4.2600000   4.7000000  10.1100000
  -4.5600000   5.4500000  10.8500000  -3.9100000   3.3900000  10.9100000
  -4.7700000   2.8800000  11.6400000  -5.5200000   4.4500000   9.2000000
  -5.2500000   3.7700000   8.3900000  -6.3000000   3.9900000   9.8100000
  -6.0900000   5.7000000   8.4300000  -6.3700000   6.3000000   9.3000000
  -5.2400000   6.1400000   7.9000000  -7.2400000   5.3800000   7.4600000
  -7.3600000   6.0800000   6.4400000  -8.0200000   4.4100000   7.6300000
  -2.7400000   2.7800000  10.8300000  -2.0400000   3.2400000  10.2600000
  -2.2400000   1.7100000  11.7000000  -1.1500000   1.7600000  11.6200000
  -2.5900000   1.8500000  12.7200000  -2.6200000   0.3100000  11.2800000
  -2.3400000  -0.6300000  12.0100000  -3.3100000   0.1200000  10.1800000
  -3.4300000   1.0000000   9.7000000  -4.0300000  -1.0700000   9.7600000
  -4.4400000  -1.5600000  10.6400000  -3.0000000  -2.0200000   9.1500000
  -3.1500000  -3.2100000   9.3500000  -5.0600000  -0.7900000   8.6500000
  -4.4500000  -0.4600000   7.8100000  -5.7300000  -1.6100000   8.4200000
  -5.9800000   0.4200000   9.0200000  -5.3100000   1.2300000   9.3400000
  -6.7000000   0.7500000   8.2700000  -6.9200000   0.0100000  10.2000000
  -6.3900000  -0.4100000  11.0500000  -7.6200000  -0.7300000   9.8300000
  -7.7300000   1.1600000  10.7600000  -6.9400000   1.8100000  11.1300000
  -8.3100000   1.6000000   9.9600000  -8.5500000   0.7900000  11.9000000
  -8.0700000   0.6300000  12.7700000  -9.3500000   1.4000000  11.9800000
  -9.0000000  -0.0900000  11.6900000  -1.9600000  -1.4900000   8.4900000
  -1.9700000  -0.4900000   8.3800000  -0.7900000  -2.2500000   8.0100000
  -1.0300000  -3.3000000   8.1000000   0.3800000  -2.0500000   9.0000000
   0.5600000  -1.0400000   9.6900000  -0.3800000  -1.9500000   6.6400000
  -0.0600000  -0.9100000   6.6200000   0.5400000  -2.5000000   6.4200000
  -1.5400000  -2.1600000   5.5700000  -2.4500000  -1.6400000   5.8700000
  -1.2300000  -1.5200000   4.2700000  -2.1300000  -1.4500000   3.6600000
  -0.4700000  -2.0600000   3.7000000  -0.8800000  -0.4900000   4.4400000
  -1.6800000  -3.7600000   5.3500000  -1.4300000  -4.3200000   6.2600000
  -0.9600000  -4.0200000   4.5700000  -2.7100000  -3.9600000   5.0800000
   1.2000000  -3.1300000   9.2300000   2.6000000  -3.0200000   9.6400000
   2.7100000  -2.4800000  10.5800000   3.4400000  -2.1800000   8.5300000
   3.1100000  -2.1900000   7.3300000   3.0100000  -4.4300000   9.7700000
   4.1000000  -4.4900000   9.7600000   2.6400000  -4.8000000  10.7300000
   2.3600000  -5.1200000   8.6300000   3.0100000  -4.9300000   7.7800000
   2.3100000  -6.2000000   8.7700000   1.0100000  -4.4100000   8.6000000
   0.2200000  -4.9800000   9.0900000   0.7700000  -4.3900000   7.5400000
   4.4900000  -1.4400000   8.9300000   5.3900000  -0.6700000   8.0600000
   4.8900000   0.2600000   7.7800000   5.9500000  -1.4800000   6.9000000
   6.3000000  -2.6600000   7.1300000   6.5800000  -0.2400000   8.9600000
   6.6000000   0.8100000   9.2700000   7.5000000  -0.5700000   8.5000000
   6.4200000  -1.1300000  10.2300000   6.9100000  -2.0800000  10.0400000
   6.7400000  -0.7000000  11.1900000   4.9400000  -1.4600000  10.3400000
   4.7500000  -2.4000000  10.8500000   4.3600000  -0.7200000  10.8900000
   6.0800000  -0.8700000   5.7500000   5.9300000   0.1200000   5.6400000
   6.2000000  -1.6500000   4.5200000   6.9100000  -2.4700000   4.6300000
   6.7300000  -0.7600000   3.3400000   6.5100000   0.4300000   3.3100000
   4.8900000  -2.3400000   4.1800000   4.4300000  -2.7500000   5.0800000
   4.1000000  -1.6400000   3.9000000   5.0000000  -3.4300000   3.1200000
   5.4400000  -3.1000000   2.1800000   5.5700000  -4.2900000   3.4700000
   3.4000000  -4.0300000   2.5900000   2.8700000  -4.9600000   4.0300000
   2.5200000  -4.3500000   4.8600000   3.6500000  -5.6000000   4.4400000
   2.0800000  -5.6000000   3.6300000   7.3900000  -1.3200000   2.3600000
   7.6200000  -2.2900000   2.5200000   7.9200000  -0.6200000   1.1300000
   7.8600000   0.4600000   1.3000000   7.1400000  -0.9200000  -0.1700000
   6.4300000  -1.9300000  -0.2100000   9.3300000  -0.9500000   0.8600000
   9.6300000  -0.4300000  -0.0500000   9.4500000  -2.3900000   0.7200000
   9.1000000  -2.7900000   1.5200000  10.1900000  -0.3100000   1.9100000
   9.8000000   0.6900000   2.1500000  11.2500000  -0.2400000   1.6600000
  10.2500000  -0.8700000   2.8500000   7.3100000  -0.1300000  -1.2400000
   7.9000000   0.6800000  -1.1300000   6.5300000  -0.1400000  -2.5200000
   5.5100000   0.0400000  -2.1900000   6.5400000  -1.4300000  -3.3400000
   5.5300000  -1.6800000  -4.0700000   6.8000000   1.0900000  -3.4600000
   7.7500000   0.9800000  -3.9700000   6.0200000   1.1600000  -4.2300000
   6.9000000   2.4500000  -2.8500000   7.1600000   2.7100000  -1.6200000
   6.8300000   3.4000000  -3.7000000   7.5200000  -2.2900000  -3.1300000
   8.1400000  -2.0000000  -2.3900000   7.5900000  -3.6700000  -3.7600000
   7.2500000  -3.6700000  -4.8000000   6.5500000  -4.4900000  -2.8900000
   5.6600000  -5.1600000  -3.3900000   9.0000000  -4.2000000  -3.6600000
   9.2600000  -4.0800000  -2.6100000   9.6000000  -3.5300000  -4.2800000
   9.1400000  -5.6600000  -4.0600000  10.0800000  -5.9100000  -3.5600000
   8.4200000  -6.2900000  -3.5400000   9.3400000  -5.8400000  -5.5400000
  10.4800000  -6.2400000  -5.8800000   8.5700000  -5.3300000  -6.3800000
   6.7500000  -4.5100000  -1.5600000   7.4600000  -3.8700000  -1.2200000
   6.0800000  -5.2800000  -0.5100000   6.0600000  -6.2900000  -0.9200000
   4.5500000  -4.8600000  -0.4700000   3.6500000  -5.7000000  -0.2700000
   6.7500000  -5.2000000   0.8300000   6.1200000  -5.7000000   1.5600000
   6.7500000  -4.1500000   1.1200000   8.1800000  -5.7500000   0.9100000
   8.1400000  -6.8300000   0.7400000   8.8700000  -5.2000000   0.2800000
   8.5100000  -5.4200000   2.3600000   8.9500000  -4.2600000   2.5600000
   8.4200000  -6.2900000   3.2400000   4.2200000  -3.6400000  -0.9000000
   4.9900000  -3.0000000  -1.0500000   2.8700000  -3.1700000  -1.0700000
   2.2900000  -3.3700000  -0.1700000   2.0900000  -3.8700000  -2.0800000
   0.8300000  -4.0600000  -1.8900000   2.8300000  -1.6600000  -1.3200000
   1.9000000  -1.2800000  -1.7400000   3.6300000  -1.4100000  -2.0100000
   3.0300000  -0.9200000   0.0400000   4.0400000  -0.9900000   0.4400000
   2.3100000  -1.4100000   0.7000000   2.5400000   0.7900000   0.0600000
   3.0400000   1.0200000   1.7500000   3.3200000   0.0600000   2.1900000
   2.2400000   1.5800000   2.2400000   3.8900000   1.7100000   1.7400000
   2.6900000  -4.2000000  -3.2100000   3.6700000  -3.9500000  -3.2600000
   2.0500000  -4.9300000  -4.2700000   0.9900000  -4.6600000  -4.3500000
   2.0900000  -6.4000000  -4.0200000   1.1900000  -7.1200000  -4.4400000
   2.5400000  -4.6100000  -5.7000000   3.6000000  -4.8000000  -5.8800000
   2.3400000  -3.1100000  -6.0000000   2.6900000  -2.9400000  -7.0200000
   3.1100000  -2.5900000  -5.4500000   1.7800000  -5.4200000  -6.8000000
   0.7300000  -5.1900000  -6.6700000   2.1700000  -5.0700000  -7.7600000
   1.9400000  -6.4900000  -6.6900000   0.9600000  -2.4500000  -5.7100000
   0.8000000  -1.5300000  -6.2600000   0.9700000  -2.2500000  -4.6400000
   0.1100000  -3.0600000  -6.0300000   3.0900000  -6.9900000  -3.2500000
   3.8000000  -6.4700000  -2.7500000   3.0500000  -8.4200000  -2.7800000
   2.8400000  -9.1400000  -3.5700000   1.8300000  -8.7600000  -1.9300000
   1.4700000  -9.9500000  -1.8500000   4.3600000  -8.8100000  -2.0200000
   4.1900000  -9.6900000  -1.4000000   4.6000000  -7.9700000  -1.3700000
   5.5700000  -9.0400000  -2.9400000   5.8400000  -8.0700000  -3.3600000
   6.3500000  -9.3300000  -2.2300000   5.4500000 -10.0000000  -4.1300000
   4.6600000  -9.5600000  -5.0200000   6.1000000 -11.0600000  -4.1800000
   1.0300000  -7.8000000  -1.5100000   1.3600000  -6.8800000  -1.7500000
  -0.2500000  -7.8600000  -0.6800000  -0.5200000  -8.9000000  -0.5000000
  -1.4700000  -7.1600000  -1.3300000  -2.4800000  -6.9500000  -0.6700000
  -0.0400000  -7.3400000   0.7300000  -1.0400000  -7.4800000   1.1500000
   0.8500000  -8.2600000   1.6100000   0.9500000  -7.7800000   2.5900000
   1.8800000  -8.3300000   1.2500000   0.4100000  -9.2200000   1.8600000
   0.3800000  -5.8400000   0.9300000  -0.2700000  -5.1200000   0.4300000
   1.4100000  -5.8000000   0.5800000   0.3200000  -5.5600000   1.9800000
  -1.3800000  -6.7800000  -2.6000000  -0.5200000  -6.9800000  -3.0900000
  -2.5600000  -6.3600000  -3.4500000  -3.4800000  -6.6200000  -2.9300000
  -2.7500000  -7.0100000  -4.7400000  -3.6700000  -6.6600000  -5.5000000
  -2.5800000  -4.8500000  -3.5200000  -3.4400000  -4.5600000  -4.1300000
  -1.3300000  -4.3400000  -4.0900000  -0.6700000  -4.3300000  -3.4000000
  -2.8200000  -4.1800000  -2.1500000  -2.5700000  -3.1200000  -2.2400000
  -3.8400000  -4.3600000  -1.8200000  -2.1000000  -4.5300000  -1.4100000
  -1.8500000  -7.9100000  -5.1500000  -1.0700000  -8.2000000  -4.5800000
  -1.7900000  -8.6400000  -6.4700000  -2.7700000  -8.8700000  -6.8900000
  -1.1200000  -9.9900000  -6.2300000  -1.3900000 -10.8800000  -7.0900000
  -0.9900000  -7.8700000  -7.4800000  -0.0700000  -7.5300000  -7.0000000
  -0.7200000  -8.5200000  -8.3000000  -1.6300000  -6.5900000  -8.0600000
  -2.6200000  -6.8300000  -8.4300000  -1.7600000  -5.8900000  -7.2400000
  -0.8100000  -6.0900000  -9.1900000  -0.5800000  -6.9800000  -9.7900000
   0.1200000  -5.6200000  -8.8700000  -1.6300000  -5.1100000  -9.9100000
  -2.6100000  -5.0400000  -9.6700000  -1.2400000  -4.2000000 -10.7700000
  -0.0500000  -3.9900000 -11.2300000   0.5700000  -4.7800000 -11.1300000
   0.1700000  -3.3000000 -11.9300000  -2.1700000  -3.3600000 -11.1400000
  -3.1200000  -3.3800000 -10.8000000  -1.9600000  -2.6800000 -11.8600000
  -0.2800000 -10.0300000  -5.2900000  -0.8830000  -4.0750000   0.5580000
  -1.8260000  -2.9840000   0.7310000  -2.9470000  -3.0450000  -0.0590000
  -2.8800000  -2.5500000  -1.3330000  -4.0370000  -2.5580000  -2.1940000
  -5.2030000  -3.1470000  -1.6840000  -6.3670000  -3.1810000  -2.5860000
  -6.7030000  -4.3260000  -3.0370000  -7.2880000  -2.0610000  -2.7950000
  -7.1310000  -1.3270000  -3.9790000  -7.9340000  -0.1830000  -4.1850000
  -8.7680000   0.2410000  -3.2000000  -8.8930000  -0.4320000  -1.9970000
  -8.1240000  -1.5900000  -1.7630000  -5.2490000  -3.6230000  -0.3800000
  -6.4580000  -4.1780000   0.0740000  -4.1210000  -3.5940000   0.4610000
  -0.5641560  -4.4438853   1.5440335  -1.3648215  -4.8910228  -0.0005291
  -0.0058242  -3.7163807  -0.0005291  -1.9298001  -2.1400022  -1.7058567
  -4.0062757  -2.1224186  -3.2036162  -6.3946695  -1.6366971  -4.7352441
  -7.8841209   0.3621908  -5.1390855  -9.3645137   1.1505181  -3.3641592
  -9.5885719  -0.0652515  -1.2277956  -8.1753148  -2.1138763  -0.7971219
  -6.5263708  -4.5269410   0.9979403  -4.1624383  -3.9881060   1.4871400
