
  648  0.0000000e+00
  -9.8710000   0.4710000 -23.1780000  -9.9930000  -0.1520000 -22.3920000
 -10.7990000   0.4430000 -23.5760000  -9.1940000   0.0600000 -23.8040000
  -9.5680000   1.7670000 -22.6090000  -9.3670000   2.4760000 -23.4110000
  -8.2850000   1.5970000 -21.8410000  -8.2350000   1.0810000 -20.6670000
 -10.6990000   2.2060000 -21.6470000 -10.2020000   2.8880000 -20.9580000
 -11.0710000   1.3650000 -21.0610000 -11.8390000   2.9390000 -22.3060000
 -12.3530000   2.3070000 -23.0300000 -11.4390000   3.7910000 -22.8560000
 -12.6970000   3.5350000 -21.1650000 -12.2090000   4.0690000 -20.3490000
 -13.3120000   2.7560000 -20.7150000 -13.7470000   4.4000000 -21.7480000
 -13.9440000   4.3350000 -22.7370000 -14.2970000   5.4390000 -21.1430000
 -14.0540000   5.7650000 -19.9640000 -14.5220000   6.6160000 -19.6870000
 -13.6870000   5.0880000 -19.3100000 -15.1810000   6.1580000 -21.7170000
 -15.7470000   6.7900000 -21.1690000 -15.3760000   5.9620000 -22.6880000
  -7.2020000   2.0030000 -22.4500000  -7.3030000   2.5710000 -23.2790000
  -5.8350000   1.9360000 -21.9200000  -5.1840000   2.4510000 -22.6270000
  -5.5090000   0.9330000 -21.6450000  -5.7620000   2.8490000 -20.6410000
  -4.9990000   2.5190000 -19.7040000  -6.6980000   3.7350000 -20.4950000
  -7.2740000   4.0340000 -21.2700000  -6.7470000   4.7090000 -19.3790000
  -5.7520000   5.1210000 -19.2130000  -7.1660000   3.9230000 -18.1140000
  -6.5720000   4.1530000 -17.0890000  -7.5880000   5.9460000 -19.8380000
  -7.5210000   6.5600000 -18.9400000  -7.0790000   6.4450000 -20.6620000
  -9.0830000   5.7710000 -20.0730000  -9.5130000   6.6680000 -19.6280000
  -9.4180000   4.9390000 -19.4540000  -9.5200000   5.5080000 -21.5290000
  -8.8050000   4.6270000 -22.0700000 -10.3510000   6.1660000 -22.1730000
  -8.1140000   3.0350000 -18.2310000  -8.5540000   2.8250000 -19.1150000
  -8.4060000   2.2060000 -17.0520000  -8.5140000   2.7350000 -16.1050000
  -7.3010000   1.1880000 -16.7290000  -7.1180000   0.9280000 -15.5510000
  -9.7990000   1.5970000 -17.2980000  -9.7710000   0.9860000 -18.2000000
 -10.5030000   2.3370000 -17.6790000 -10.2940000   0.7710000 -16.1210000
 -10.2180000   1.4820000 -15.2980000  -9.6390000  -0.0950000 -16.0220000
 -11.7000000   0.3440000 -16.3380000 -12.3070000   1.2350000 -16.5000000
 -11.7360000  -0.2940000 -17.2210000 -12.1440000  -0.4920000 -15.2270000
 -11.5130000  -0.7570000 -14.4840000 -13.3320000  -1.1170000 -15.0550000
 -14.3390000  -0.9830000 -15.8280000 -15.2260000  -1.3110000 -15.4730000
 -14.2580000  -0.3890000 -16.6410000 -13.4970000  -1.8750000 -13.9820000
 -12.7290000  -1.9120000 -13.3270000 -14.4090000  -2.2180000 -13.7170000
  -6.4760000   0.6700000 -17.6760000  -6.7140000   0.7470000 -18.6550000
  -5.3000000  -0.1830000 -17.3610000  -5.7050000  -0.9900000 -16.7500000
  -4.2810000   0.6270000 -16.5570000  -3.5250000   0.1420000 -15.7620000
  -4.6250000  -0.7070000 -18.6960000  -5.4380000  -1.1310000 -19.2850000
  -4.3150000   0.1650000 -19.2720000  -3.4240000  -1.6640000 -18.4750000
  -2.7510000  -1.0750000 -17.8540000  -2.8830000  -1.8220000 -19.4080000
  -3.8380000  -2.9570000 -17.6760000  -4.5800000  -3.4550000 -18.2990000
  -4.2490000  -2.6640000 -16.7100000  -2.5140000  -3.7850000 -17.6090000
  -1.6590000  -3.1760000 -17.3150000  -2.3860000  -4.0550000 -18.6570000
  -2.6820000  -5.0420000 -16.8890000  -1.7380000  -5.4010000 -16.8710000
  -3.2600000  -5.7240000 -17.3570000  -3.0260000  -5.0250000 -15.9390000
  -4.2350000   1.9460000 -16.8260000  -4.8500000   2.2210000 -17.5770000
  -3.2300000   2.8860000 -16.2070000  -2.2610000   2.4020000 -16.0840000
  -3.6340000   3.2970000 -14.7940000  -2.8090000   3.3660000 -13.8520000
  -3.0480000   4.1300000 -17.1080000  -3.0510000   3.8810000 -18.1690000
  -3.9490000   4.7330000 -16.9960000  -1.8500000   5.1080000 -16.7770000
  -1.9570000   5.8570000 -17.5620000  -2.0020000   5.4870000 -15.7660000
  -0.4860000   4.5130000 -17.0750000  -0.4080000   3.5600000 -17.8620000
   0.5220000   5.0480000 -16.5780000  -4.9080000   3.5710000 -14.6660000
  -5.4490000   3.4840000 -15.5150000  -5.5950000   3.7180000 -13.4030000
  -5.0690000   4.4560000 -12.7970000  -5.5710000   2.3900000 -12.5740000
  -5.3930000   2.5670000 -11.3760000  -7.0090000   4.0810000 -13.6820000
  -7.5300000   3.4160000 -14.3710000  -7.5880000   3.9870000 -12.7630000
  -7.0960000   5.5220000 -14.1040000  -6.3020000   5.7640000 -14.8110000
  -6.8980000   6.1230000 -13.2160000  -8.4610000   5.8860000 -14.6840000
  -9.2030000   5.7840000 -13.8910000  -8.7310000   5.2100000 -15.4950000
  -8.4080000   7.2740000 -15.2640000  -7.9570000   7.1740000 -16.2510000
  -7.8620000   7.9820000 -14.6400000  -9.7790000   7.7870000 -15.3460000
 -10.3790000   7.2090000 -15.9180000  -9.8390000   8.6880000 -15.7970000
 -10.2180000   7.9190000 -14.4460000  -5.6240000   1.2250000 -13.1180000
  -5.8250000   1.2450000 -14.1080000  -5.4130000  -0.0320000 -12.3580000
  -6.1760000  -0.0850000 -11.5810000  -3.9990000  -0.0270000 -11.7700000
  -3.9430000  -0.3050000 -10.5960000  -5.7490000  -1.1630000 -13.3140000
  -5.6250000  -2.0470000 -12.6880000  -5.0730000  -1.0800000 -14.1640000
  -7.0610000  -1.0730000 -13.8600000  -6.9780000  -0.3490000 -14.4850000
  -2.9520000   0.3890000 -12.4650000  -3.0470000   0.5310000 -13.4610000
  -1.6180000   0.5800000 -11.8170000  -1.3750000  -0.3920000 -11.3880000
  -1.5970000   1.5820000 -10.6600000  -1.0810000   1.3210000  -9.6020000
  -0.5190000   0.7550000 -12.8780000   0.4490000   1.0020000 -12.4410000
  -0.8060000   1.5870000 -13.5200000  -0.3900000  -0.5090000 -13.8400000
   0.1440000  -1.2810000 -13.2850000  -1.3240000  -0.9230000 -14.2200000
   0.4290000  -0.0660000 -15.0700000  -0.2020000   0.5780000 -15.6820000
   1.2640000   0.5430000 -14.7220000   0.7890000  -1.3410000 -15.8410000
  -0.0810000  -1.9990000 -15.8530000   1.5830000  -1.7580000 -15.2220000
   1.3220000  -0.9860000 -17.1770000   0.7780000  -0.3360000 -17.7250000
   1.3300000  -1.7530000 -17.8340000   2.2830000  -0.7220000 -17.0130000
  -2.2800000   2.7590000 -10.9090000  -2.5430000   2.9240000 -11.8700000
  -2.3060000   3.8330000  -9.9240000  -1.2470000   3.9560000  -9.6950000
  -3.1090000   3.5100000  -8.6610000  -2.6870000   3.8690000  -7.5720000
  -2.7490000   5.1350000 -10.6720000  -2.6250000   5.9700000  -9.9820000
  -3.7840000   5.0310000 -10.9950000  -1.8060000   5.5520000 -11.7970000
  -1.3630000   4.7000000 -12.3120000  -2.5800000   6.5850000 -12.6970000
  -2.9320000   7.3400000 -11.9940000  -3.4510000   6.1240000 -13.1620000
  -2.0020000   6.9960000 -13.5240000  -0.4890000   6.2630000 -11.3030000
  -0.0250000   6.6390000 -12.2150000   0.1720000   5.5750000 -10.7770000
  -0.6690000   7.1010000 -10.6300000  -4.2180000   2.7680000  -8.8240000
  -4.6580000   2.7260000  -9.7320000  -4.8230000   2.1370000  -7.6370000
  -5.1230000   2.8880000  -6.9060000  -3.9030000   1.0970000  -6.9490000
  -3.7040000   1.2090000  -5.7560000  -6.1210000   1.3840000  -8.1230000
  -5.7260000   0.7730000  -8.9350000  -7.1210000   2.4740000  -8.5270000
  -6.5590000   3.1620000  -9.1590000  -7.5050000   2.9990000  -7.6520000
  -6.7350000   0.4440000  -7.1040000  -5.9460000  -0.2490000  -6.8120000
  -7.1010000   0.9740000  -6.2240000  -7.5750000  -0.1170000  -7.5130000
  -8.2900000   1.9140000  -9.3540000  -8.9650000   1.2380000  -8.8290000
  -7.8840000   1.3470000 -10.1920000  -9.0410000   2.6510000  -9.6370000
  -3.3320000   0.2200000  -7.7220000  -3.5030000   0.2640000  -8.7170000
  -2.4650000  -0.9280000  -7.1900000  -3.0210000  -1.6660000  -6.6120000
  -1.1980000  -0.4940000  -6.4460000  -0.8680000  -1.0420000  -5.3710000
  -2.1860000  -1.7790000  -8.4000000  -3.1230000  -2.1440000  -8.8230000
  -1.7190000  -1.2170000  -9.2090000  -1.3000000  -2.9580000  -8.0980000
  -1.8870000  -4.1920000  -7.7330000  -2.9450000  -4.3980000  -7.8070000
   0.1410000  -2.8640000  -8.1040000   0.5410000  -1.9150000  -8.4300000
  -1.0630000  -5.1560000  -7.0980000  -1.5010000  -6.1150000  -6.8610000
   0.9370000  -3.8160000  -7.5980000   2.0110000  -3.7310000  -7.6740000
   0.3650000  -5.0120000  -7.0600000   1.0300000  -5.7830000  -6.6990000
  -0.4240000   0.4700000  -6.9620000  -0.6050000   0.8540000  -7.8790000
   0.8380000   0.9250000  -6.2770000   1.4010000   0.0290000  -6.0160000
   0.4850000   1.6830000  -4.9980000   1.0790000   1.4370000  -3.9600000
   1.6300000   1.7760000  -7.2730000   0.8970000   2.4010000  -7.7830000
   2.2780000   0.7820000  -8.2950000   1.4930000   0.3150000  -8.8890000
   2.9450000   0.0780000  -7.7980000   2.6570000   2.6410000  -6.4460000
   3.1680000   3.3700000  -7.0760000   3.2430000   1.9500000  -5.8400000
   2.1580000   3.2700000  -5.7090000   3.1440000   1.5130000  -9.2860000
   3.9790000   2.0340000  -8.8180000   3.5500000   0.8360000 -10.0380000
   2.5960000   2.2910000  -9.8170000  -0.5580000   2.5800000  -5.0130000
  -0.9370000   2.7630000  -5.9310000  -1.0260000   3.3390000  -3.8600000
  -0.1590000   3.8290000  -3.4170000  -1.5570000   2.5220000  -2.6570000
  -1.0270000   2.7250000  -1.5470000  -1.7830000   4.6100000  -4.2630000
  -2.6800000   4.3960000  -4.8450000  -1.0360000   5.6220000  -5.1740000
  -1.7550000   6.3730000  -5.5020000  -0.7010000   5.1570000  -6.1010000
  -2.2090000   5.2570000  -2.9520000  -1.3750000   5.3700000  -2.2600000
  -3.1040000   4.7880000  -2.5420000  -2.5040000   6.2950000  -3.1090000
   0.2200000   6.3490000  -4.5770000   1.0070000   5.7390000  -4.1320000
  -0.0940000   7.0650000  -3.8190000   0.5710000   6.9710000  -5.4010000
  -2.3080000   1.4590000  -2.9370000  -2.7300000   1.3720000  -3.8510000
  -2.7050000   0.4220000  -1.9520000  -3.0950000   0.9330000  -1.0710000
  -1.5140000  -0.3480000  -1.3680000  -1.3630000  -0.4830000  -0.1440000
  -3.8120000  -0.4420000  -2.4600000  -4.1380000  -1.1820000  -1.7300000
  -3.4060000  -0.9230000  -3.3500000  -5.1000000   0.3700000  -2.8040000
  -5.4370000   1.4780000  -2.2310000  -5.8610000  -0.2050000  -3.6150000
  -0.5880000  -0.7150000  -2.2720000  -0.6380000  -0.4780000  -3.2530000
   0.6080000  -1.4400000  -1.7470000   0.3620000  -2.2580000  -1.0700000
   1.6720000  -0.5710000  -1.1520000   2.2480000  -0.9230000  -0.1010000
   1.3030000  -2.1300000  -2.9610000   1.7810000  -1.4200000  -3.6350000
   2.1350000  -2.7660000  -2.6580000   0.4050000  -2.8680000  -3.7500000
  -0.1380000  -2.2570000  -4.2520000   1.6990000   0.7460000  -1.4690000
   1.2490000   0.9940000  -2.3380000   2.4200000   1.7820000  -0.6980000
   3.3960000   1.4000000  -0.3970000   1.8930000   1.9750000   0.7180000
   2.6700000   2.1310000   1.6170000   2.6000000   3.0670000  -1.4890000
   1.7190000   3.4270000  -2.0210000   2.8780000   3.8510000  -0.7850000
   3.8340000   2.9390000  -2.4120000   4.6860000   2.6290000  -1.8080000
   3.7070000   2.2140000  -3.2160000   4.0940000   4.3150000  -3.0370000
   3.1880000   4.7300000  -3.4780000   4.4170000   4.8320000  -2.1330000
   5.2140000   4.3920000  -4.0890000   6.1580000   4.1220000  -3.6160000
   4.9840000   3.6090000  -4.8130000   5.2510000   5.7150000  -4.6710000
   4.4100000   5.9780000  -5.1630000   5.4420000   6.4790000  -4.0390000
   5.9860000   5.7330000  -5.3640000   0.5830000   2.1580000   0.9140000
   0.0310000   1.8760000   0.1160000  -0.1630000   2.4280000   2.1090000
   0.3560000   3.2780000   2.5520000  -0.0780000   1.2850000   3.0640000
   0.1950000   1.4380000   4.2520000  -1.6720000   2.8360000   1.8320000
  -2.1300000   2.1460000   1.1230000  -1.5700000   4.3190000   1.3580000
  -1.2830000   4.9270000   2.2170000  -0.7760000   4.3420000   0.6110000
  -2.5610000   2.6920000   3.0130000  -3.5180000   3.1650000   2.7900000
  -2.1510000   3.1280000   3.9240000  -2.7780000   1.6480000   3.2350000
  -2.9070000   4.8780000   0.7110000  -2.7240000   5.8420000   0.2360000
  -3.6090000   4.9610000   1.5410000  -3.2950000   4.2390000  -0.0810000
  -0.2730000   0.0840000   2.5160000  -0.4100000   0.0470000   1.5160000
  -0.3170000  -1.1660000   3.2340000  -0.9470000  -0.9510000   4.0970000
   1.0870000  -1.4740000   3.7290000   1.3200000  -1.8780000   4.8540000
  -0.9870000  -2.2180000   2.3740000  -1.9110000  -1.7500000   2.0360000
  -0.5140000  -2.2380000   1.3920000  -1.2020000  -3.6400000   2.8680000
  -1.2420000  -3.9890000   4.2280000  -1.2790000  -3.1920000   4.9570000
  -1.3120000  -4.6790000   1.9050000  -1.3270000  -4.5690000   0.8310000
  -1.3010000  -5.2900000   4.6420000  -1.2730000  -5.5120000   5.6990000
  -1.3860000  -6.0040000   2.3000000  -1.3170000  -6.7850000   1.5570000
  -1.3880000  -6.3000000   3.6700000  -1.4950000  -7.3050000   4.0500000
   2.0990000  -1.2690000   2.8950000   1.8480000  -1.0740000   1.9360000
   3.5340000  -1.4590000   3.2280000   3.6610000  -2.3700000   3.8140000
   3.9980000  -0.4110000   4.2320000   4.5690000  -0.7620000   5.2570000
   4.4760000  -1.3600000   2.0060000   4.0790000  -0.5190000   1.4370000
   5.5140000  -1.2790000   2.3290000   4.4150000  -2.5980000   1.0880000
   3.3760000  -2.9150000   0.9970000   5.0460000  -2.3970000  -0.3270000
   4.8140000  -3.2970000  -0.8950000   4.6310000  -1.5060000  -0.7990000
   6.1120000  -2.2040000  -0.2060000   5.1550000  -3.8690000   1.6930000
   4.7900000  -4.7410000   1.1490000   6.2390000  -3.7790000   1.7520000
   4.9240000  -3.9630000   2.7540000   3.5930000   0.8360000   4.1040000
   3.1030000   1.0010000   3.2360000   3.7240000   1.9320000   5.1030000
   4.7840000   2.1510000   5.2320000   3.2680000   1.4960000   6.5280000
   3.9380000   1.8810000   7.5230000   2.9950000   3.2050000   4.6350000
   3.2300000   3.3150000   3.5760000   1.9090000   3.1120000   4.6240000
   3.5190000   4.4080000   5.3050000   4.2970000   4.7150000   4.8320000
   2.1600000   0.8010000   6.6310000   1.6560000   0.6100000   5.7770000
   1.6240000   0.4440000   7.9260000   1.8140000   1.1780000   8.7090000
   2.1560000  -0.8460000   8.4360000   2.3750000  -0.9840000   9.6720000
   0.1070000   0.2850000   7.7610000  -0.3370000   1.2550000   7.5370000
  -0.2060000  -0.4650000   7.0350000  -0.6060000  -0.2160000   9.0050000
  -0.6090000   0.6150000  10.1420000  -0.3470000   1.6520000   9.9950000
  -0.9950000  -1.5800000   9.0600000  -0.8700000  -2.3080000   8.2720000
  -1.2330000   0.0970000  11.2990000  -1.4720000   0.7850000  12.0960000
  -1.4960000  -2.0630000  10.2510000  -1.7310000  -3.1120000  10.3510000
  -1.6820000  -1.2180000  11.3270000  -2.1850000  -1.6330000  12.1880000
   2.5110000  -1.8030000   7.5590000   2.2610000  -1.6700000   6.5890000
   3.1110000  -3.1070000   7.9260000   2.5310000  -3.4540000   8.7810000
   4.5580000  -2.9190000   8.4320000   4.9990000  -3.6010000   9.3770000
   3.0070000  -4.1060000   6.7290000   3.6310000  -3.8220000   5.8820000
   3.2890000  -5.1300000   6.9750000   1.6310000  -4.2070000   6.2940000
   1.5140000  -3.5070000   5.6470000   5.2480000  -1.9090000   7.9220000
   4.7480000  -1.3160000   7.2750000   6.5140000  -1.4770000   8.4720000
   7.1670000  -2.3390000   8.6110000   6.2740000  -0.8480000   9.8730000
   6.9770000  -1.1540000  10.8170000   7.1120000  -0.3840000   7.4770000
   6.3650000   0.3560000   7.1890000   7.6200000  -1.1140000   6.2030000
   6.8250000  -1.7390000   5.7970000   8.5420000  -1.6900000   6.2890000
   8.2840000   0.3700000   8.0910000   7.9110000   0.9350000   8.9460000
   9.0250000  -0.3100000   8.5120000   8.7820000   1.0790000   7.4310000
   8.0410000  -0.1870000   5.1110000   8.5570000  -0.6960000   4.2960000
   8.6690000   0.5940000   5.5390000   7.2090000   0.3540000   4.6610000
   5.2710000   0.0420000   9.9520000   4.6270000   0.1610000   9.1830000
   5.0310000   0.8750000  11.1750000   5.8620000   1.4340000  11.6050000
   4.5550000   0.0060000  12.3640000   4.7570000   0.4330000  13.5250000
   3.8600000   1.8870000  10.9350000   2.9970000   1.4050000  10.4750000
   4.1690000   2.6070000  10.1770000   3.3200000   2.7020000  11.9890000
   3.9040000   3.8200000  12.3990000   4.8070000   4.2010000  11.9440000
   2.1400000   2.5790000  12.9360000   3.2250000   4.3810000  13.4930000
   3.6520000   5.1030000  14.0560000   2.1530000   3.6070000  13.9150000
   1.1270000   1.5660000  13.0920000   1.1240000   0.7250000  12.4140000
   1.2780000   3.6510000  15.0130000   1.4770000   4.3760000  15.7880000
   0.2380000   1.6070000  14.1820000  -0.4130000   0.7720000  14.3970000
   0.3630000   2.5660000  15.1480000  -0.3560000   2.6140000  15.9530000
   3.8890000  -1.1090000  12.0960000   3.5490000  -1.2190000  11.1510000
   3.6330000  -2.2540000  12.9820000   3.0580000  -1.8160000  13.7980000
   4.8870000  -2.9850000  13.3960000   5.1890000  -3.0430000  14.5700000
   2.6020000  -3.1420000  12.2640000   2.8280000  -3.2720000  11.2060000
   2.6600000  -4.1560000  12.6590000   1.1560000  -2.5720000  12.3870000
   1.2130000  -1.5730000  11.9550000   0.4850000  -3.1770000  11.7770000
   0.5500000  -2.5270000  13.7460000   1.2380000  -1.9410000  14.3560000
  -0.3870000  -1.9720000  13.6990000   0.3030000  -3.8580000  14.3480000
  -0.0090000  -4.5950000  13.7310000   0.3140000  -4.1940000  15.6710000
   0.6470000  -3.3510000  16.6560000   0.8150000  -2.3720000  16.4700000
   0.7560000  -3.6530000  17.6140000  -0.0130000  -5.4220000  15.9560000
  -0.4640000  -5.9880000  15.2520000   0.0880000  -5.7940000  16.8900000
   5.6770000  -3.4710000  12.4170000   5.1640000  -3.6050000  11.5570000
   6.8200000  -4.3140000  12.7260000   6.4160000  -5.1990000  13.2170000
   7.8770000  -3.5970000  13.6230000   8.3530000  -4.2300000  14.5210000
   7.3900000  -4.7150000  11.3440000   7.2500000  -3.9450000  10.5850000
   6.8990000  -5.5800000  10.8980000   8.9690000  -4.9670000  11.2670000
   9.4570000  -6.2480000  11.6470000   8.7350000  -7.0290000  11.8330000
   9.9050000  -3.9620000  10.8920000   9.5920000  -2.9560000  10.6530000
  10.8290000  -6.5590000  11.5700000  11.2160000  -7.5140000  11.8920000
  11.2470000  -4.3320000  10.8190000  11.9340000  -3.6220000  10.3820000
  11.7370000  -5.5980000  11.1140000  12.7950000  -5.7830000  10.9950000
   8.0650000  -2.3520000  13.4240000   7.6470000  -1.8690000  12.6410000
   8.8730000  -1.6010000  14.3620000   9.8400000  -2.0900000  14.4760000
   8.2700000  -1.5480000  15.7350000   8.9390000  -1.9290000  16.6800000
   9.3040000  -0.2510000  13.8030000   9.9750000   0.1770000  14.5480000
   8.3820000   0.3290000  13.7920000   9.9420000  -0.0730000  12.3780000
   9.2410000  -0.6110000  11.7390000   9.8660000   1.4070000  12.0890000
  10.2480000   1.6160000  11.0900000   8.8340000   1.7220000  12.2450000
  10.4520000   1.9640000  12.8190000  11.3310000  -0.6570000  12.1410000
  11.3860000  -1.7320000  12.3110000  11.5270000  -0.7430000  11.0720000
  12.0370000   0.0520000  12.5740000   7.0110000  -1.1930000  15.9160000
   6.5430000  -0.7870000  15.1190000   6.4160000  -1.3340000  17.2640000
   6.8880000  -0.7030000  18.0170000   6.3860000  -2.8060000  17.6850000
   6.5090000  -3.0490000  18.8740000   4.9570000  -0.7690000  17.1050000
   4.4930000  -1.1840000  16.2100000   4.9650000   0.8050000  17.0780000
   5.4090000   1.1410000  18.0160000   5.6350000   1.1690000  16.2990000
   4.0260000  -1.1780000  18.2590000   3.0060000  -0.8100000  18.1520000
   4.0110000  -2.2670000  18.3060000   4.4290000  -0.7310000  19.1680000
   3.6340000   1.5080000  16.8550000   3.2180000   1.1690000  15.9060000
   3.7680000   2.5850000  16.7640000   2.9930000   1.2520000  17.6990000
   6.4040000  -3.8160000  16.8520000   6.3330000  -3.6240000  15.8630000
   6.2940000  -5.2550000  17.2100000   5.8180000  -5.3250000  18.1880000
   7.6460000  -5.8310000  17.5930000   7.7700000  -6.7760000  18.3820000
   5.6620000  -6.2170000  16.1360000   6.0920000  -5.9340000  15.1760000
   5.7580000  -7.2860000  16.3280000   4.1820000  -5.8410000  15.9560000
   3.9700000  -4.7730000  15.9860000   3.7850000  -6.3350000  14.5310000
   2.6970000  -6.2690000  14.5460000   4.0400000  -7.3920000  14.4480000
   4.3040000  -5.7790000  13.7510000   3.3820000  -6.5630000  16.9610000
   3.4790000  -7.6020000  16.6470000   2.3110000  -6.3720000  16.8880000
   3.6940000  -6.3770000  17.9890000   8.7470000  -5.2080000  17.2080000
   8.6410000  -4.3960000  16.6160000  10.1190000  -5.5210000  17.6900000
  10.3580000  -6.5850000  17.6880000  10.4130000  -4.7910000  19.0640000
  11.1310000  -5.3640000  19.9090000  11.2010000  -5.0090000  16.7090000
  10.7430000  -4.0920000  16.3380000  12.0800000  -4.7580000  17.3020000
  11.5330000  -5.6860000  15.3230000  10.6270000  -5.9980000  14.8030000
  12.3030000  -4.6380000  14.5710000  12.7120000  -5.0930000  13.6690000
  13.1800000  -4.4290000  15.1850000  11.7810000  -3.7320000  14.2640000
  12.2180000  -7.0760000  15.4910000  12.6400000  -7.4410000  14.5550000
  11.5090000  -7.7940000  15.9020000  12.9180000  -6.9770000  16.3210000
   9.8820000  -3.5760000  19.2440000   9.4180000  -3.1810000  18.4380000
   9.7760000  -2.9170000  20.5220000  10.7350000  -2.9120000  21.0390000
   8.8220000  -3.5720000  21.5440000   8.9150000  -3.2950000  22.7600000
   9.3510000  -1.4110000  20.3250000   8.4650000  -1.2710000  19.7060000
   9.0580000  -1.0210000  21.3000000  10.6070000  -0.7050000  19.9310000
  10.9990000  -0.9820000  18.9520000  11.4240000  -0.8480000  20.6370000
  10.3970000   0.8080000  19.8880000   9.5130000   1.0880000  19.3150000
  11.2040000   1.3110000  19.3550000  10.2540000   1.3780000  21.2370000
  10.9340000   1.0940000  21.9270000   9.5210000   2.4060000  21.5530000
   8.9380000   3.1770000  20.6780000   9.3520000   3.2550000  19.7600000
   8.3280000   3.9130000  21.0030000   9.3440000   2.7370000  22.7890000
   9.6610000   2.1520000  23.5490000   8.7600000   3.5300000  23.0160000
   7.8720000  -4.4140000  21.0970000   8.0220000  -4.8140000  20.1820000
   7.0060000  -5.2720000  21.9450000   6.6470000  -4.7190000  22.8120000
   7.7680000  -6.4870000  22.5000000   8.5140000  -7.1340000  21.7360000
   5.7050000  -5.5370000  21.1750000   5.5210000  -4.5940000  20.6610000
   4.8570000  -5.7440000  21.8280000   5.8660000  -6.5690000  20.2090000
   6.7990000  -6.5890000  19.9840000   7.6580000  -6.7580000  23.7140000
  -6.0680000  -4.1780000   7.1590000  -5.9590000  -2.6860000   7.4530000
  -5.3980000  -1.9430000   6.2770000  -5.3660000  -0.4640000   6.5080000
  -4.7460000   0.3200000   5.3770000  -4.9560000   1.8150000   5.6070000
  -3.6710000   2.6210000   5.6820000  -5.3640000  -0.0380000   4.1530000
  -4.6420000  -0.6730000   3.2070000  -3.4740000  -0.9050000   3.3720000
  -5.3930000  -1.0710000   1.9890000  -4.7310000  -1.7510000   1.0110000
  -5.3770000  -2.2380000  -0.2240000  -4.5890000  -2.8770000  -1.1640000
  -5.1420000  -3.3680000  -2.3320000  -6.4830000  -3.2290000  -2.5780000
  -6.9750000  -3.7310000  -3.7350000  -8.3740000  -3.6930000  -3.9860000
  -7.2720000  -2.5960000  -1.6440000  -6.7160000  -2.1010000  -0.4710000
  -6.1088000  -4.7363000   8.1059000  -6.9827000  -4.3717000   6.5795000
  -5.1912000  -4.5025000   6.5795000  -6.9596000  -2.2912000   7.6832000
  -5.2821000  -2.5473000   8.3089000  -4.3726000  -2.2952000   6.0913000
  -6.0494000  -2.1366000   5.4120000  -6.3992000  -0.1130000   6.6467000
  -4.7385000  -0.2936000   7.3952000  -3.6702000   0.0938000   5.3374000
  -5.5625000   2.2094000   4.7784000  -5.4504000   1.9176000   6.5843000
  -3.4041000   2.7884000   6.7359000  -2.8618000   2.0683000   5.1822000
  -3.8163000   3.5901000   5.1822000  -6.4589000  -0.8226000   1.8789000
  -3.6576000  -1.9476000   1.1492000  -3.5110000  -2.9958000  -0.9803000
  -4.5011000  -3.8738000  -3.0691000  -8.9178000  -3.6782000  -3.0299000
  -8.6189000  -2.7879000  -4.5611000  -8.6677000  -4.5835000  -4.5611000
  -8.3504000  -2.4814000  -1.8279000  -7.3574000  -1.5947000   0.2654000
