
  421  0.0000000e+00
  -4.1100000  -4.3100000 -11.2300000  -4.9800000  -3.8100000 -11.3400000
  -4.2400000  -5.0100000 -10.5000000  -3.8400000  -4.8500000 -12.0400000
  -2.9900000  -3.4400000 -10.8600000  -2.1400000  -4.0800000 -10.6100000
  -3.4700000  -2.3800000  -9.8900000  -4.6300000  -1.9100000  -9.9500000
  -2.5800000  -2.6200000 -12.1000000  -1.9900000  -3.2700000 -12.7500000
  -1.8700000  -1.8400000 -11.8400000  -3.6600000  -2.0200000 -12.8500000
  -3.8900000  -1.2100000 -12.3900000  -2.5700000  -1.9600000  -8.9700000
  -1.6700000  -2.3900000  -9.0400000  -2.7300000  -0.8400000  -8.0700000
  -2.9100000   0.1200000  -8.5600000  -1.8100000  -0.7600000  -7.4800000
  -3.9600000  -0.9500000  -7.1000000  -4.3900000  -2.0400000  -6.7300000
  -4.6300000   0.1800000  -6.7000000  -4.2200000   1.0600000  -6.9700000
  -5.7600000   0.1500000  -5.8000000  -6.5300000  -0.5100000  -6.2100000
  -5.4200000  -0.2600000  -4.8600000  -6.5300000   1.5400000  -5.6500000
  -6.9700000   2.1600000  -6.6200000  -6.7900000   1.9700000  -4.3900000
  -6.4600000   1.4200000  -3.6100000  -7.6600000   3.1300000  -4.1600000
  -8.4400000   3.1100000  -4.9200000  -7.0700000   4.5200000  -4.2200000
  -7.6400000   5.4700000  -4.6800000  -8.3500000   2.8800000  -2.7800000
  -9.0300000   3.7000000  -2.5500000  -8.8000000   1.8800000  -2.7700000
  -7.4300000   2.9800000  -1.7300000  -6.9700000   2.1400000  -1.7800000
  -5.8200000   4.6500000  -3.7300000  -5.4400000   3.8300000  -3.2900000
  -5.1800000   5.9500000  -3.5700000  -5.7600000   6.4500000  -2.7900000
  -5.2400000   6.6800000  -4.3800000  -3.7000000   5.9500000  -3.2300000
  -3.1400000   4.8600000  -3.3200000  -3.1000000   7.0200000  -2.6800000
  -3.5200000   7.9300000  -2.7900000  -1.7600000   6.9200000  -1.9700000
  -1.4800000   5.8900000  -1.7500000  -1.9000000   7.5300000  -0.5500000
  -2.6600000   8.4700000  -0.2900000  -0.7100000   7.5400000  -2.8600000
   0.2300000   7.6500000  -2.3200000  -0.9600000   8.5500000  -3.1900000
  -0.4000000   6.6600000  -4.1000000  -0.1500000   5.6800000  -3.7000000
  -1.3100000   6.6200000  -4.7000000   0.6900000   7.1300000  -5.0300000
   0.3600000   8.0800000  -5.4300000   1.6900000   7.1800000  -4.6000000
   0.7200000   6.1300000  -6.2400000  -0.1800000   6.3400000  -6.8200000
   0.5700000   5.1300000  -5.8400000   1.9500000   6.2900000  -7.0500000
   1.9800000   7.1200000  -7.6300000   2.1800000   5.4400000  -7.5500000
   2.7500000   6.4800000  -6.4700000  -1.2100000   6.8700000   0.4300000
  -0.5600000   6.1600000   0.1200000  -1.4200000   7.1300000   1.8900000
  -2.4400000   6.8300000   2.1400000  -1.2600000   8.1600000   2.2000000
  -0.4400000   6.1800000   2.5900000   0.7500000   6.1900000   2.1600000
  -0.8700000   5.3200000   3.5500000  -1.8600000   5.2600000   3.7100000
  -0.1200000   4.3700000   4.3500000   0.7200000   4.1800000   3.6800000
  -0.8600000   3.0300000   4.5800000  -2.0700000   3.0300000   4.7500000
   0.4000000   5.0600000   5.6400000   0.8500000   4.3100000   6.2900000
  -0.4700000   5.3200000   6.2400000   1.4100000   6.1800000   5.5900000
   0.8300000   7.0400000   5.2400000   2.6500000   5.8300000   4.8200000
   2.3700000   5.8400000   3.7700000   3.1500000   4.9100000   5.1200000
   3.4100000   6.6000000   5.0000000   1.8800000   6.4500000   7.0500000
   2.6000000   7.2700000   7.0400000   1.0600000   6.7300000   7.7000000
   2.3900000   5.6000000   7.5000000  -0.1100000   1.9500000   4.8700000
   0.8600000   2.1300000   4.6600000  -0.5900000   1.0200000   5.9200000
   0.2600000   0.4400000   6.2600000  -0.8700000   1.7200000   6.7100000
  -1.8100000   0.1500000   5.4900000  -2.4100000  -0.5600000   6.3000000
  -2.2000000   0.1700000   4.2300000  -1.7300000   0.7400000   3.5400000
  -3.1100000  -0.8300000   3.6800000  -4.0900000  -0.8500000   4.1600000
  -3.3900000  -0.6300000   2.6400000  -2.5900000  -2.2600000   3.6700000
  -1.5200000  -2.5900000   4.1800000  -3.2900000  -3.1100000   2.8800000
  -4.1600000  -2.7200000   2.5500000  -3.0700000  -4.5100000   2.7600000
  -3.6700000  -4.9400000   1.9600000  -2.0300000  -4.7200000   2.5200000
  -3.3000000  -5.2700000   4.0600000  -4.2300000  -5.0300000   4.8500000
  -2.3400000  -6.1900000   4.2800000  -1.8500000  -6.5100000   3.4600000
  -1.8500000  -6.6600000   5.5700000  -2.5400000  -6.2400000   6.3000000
  -0.4100000  -6.0600000   5.7100000   0.2000000  -6.2400000   6.7300000
  -2.0400000  -8.1300000   5.6000000  -2.2100000  -8.4300000   6.6400000
  -1.0600000  -8.5700000   5.4200000  -3.1100000  -8.7600000   4.7400000
  -4.4000000  -8.8600000   5.0600000  -4.8400000  -8.3800000   5.9200000
  -3.0000000  -9.3600000   3.3900000  -5.0900000  -9.3700000   4.0100000
  -6.0800000  -9.5800000   3.9900000  -4.2600000  -9.8200000   2.9700000
  -1.9100000  -9.6500000   2.5500000  -0.9200000  -9.4200000   2.9100000
  -4.4700000 -10.5600000   1.8300000  -5.5000000 -10.8000000   1.6200000
  -2.0700000 -10.3700000   1.3300000  -1.1600000 -10.6200000   0.8000000
  -3.3600000 -10.7700000   0.9800000  -3.5900000 -11.2900000   0.0600000
   0.0900000  -5.4100000   4.6800000  -0.6200000  -5.2100000   3.9800000
   1.4200000  -4.8200000   4.5400000   2.1500000  -5.6200000   4.4100000
   1.7200000  -4.2800000   5.4400000   1.6400000  -3.9600000   3.3100000
   0.8300000  -3.9800000   2.3900000   2.8600000  -3.3700000   3.1700000
   3.5100000  -3.4500000   3.9400000   3.2500000  -2.6300000   1.9800000
   4.1000000  -3.1900000   1.5800000   2.4700000  -2.7000000   1.2300000
   3.6200000  -1.1500000   2.2100000   3.6600000  -0.3800000   1.2700000
   3.8500000  -0.8100000   3.5300000   3.9200000  -1.5000000   4.2600000
   4.4400000   0.4400000   3.9000000   4.4100000   0.4000000   4.9900000
   5.5000000   0.4700000   3.6300000   3.7400000   1.6600000   3.4400000
   2.6700000   1.9500000   3.9800000   4.3500000   2.4700000   2.5200000
   5.1800000   2.1000000   2.0900000   3.8500000   3.6600000   1.8400000
   3.4600000   4.3300000   2.6100000   2.7100000   3.2500000   0.8400000
   2.8000000   2.3600000   0.0100000   4.9800000   4.3000000   1.0600000
   5.6500000   3.5000000   0.7300000   4.5400000   4.7400000   0.1600000
   5.6400000   5.4400000   1.8400000   5.6600000   5.1000000   2.8800000
   4.8400000   6.7300000   1.8000000   5.4100000   7.5400000   2.2400000
   4.5800000   7.0600000   0.8000000   3.9500000   6.6700000   2.4300000
   6.9900000   5.6600000   1.2700000   7.4700000   4.7000000   1.0500000
   6.9200000   6.2200000   0.3300000   7.5600000   6.2200000   2.0100000
   1.5500000   3.9000000   1.0100000   1.4600000   4.6100000   1.7200000
   0.3100000   3.4400000   0.3800000   0.5400000   3.3700000  -0.6800000
  -0.4600000   4.1700000   0.6200000  -0.2200000   2.1300000   0.9500000
  -1.2700000   2.2100000   1.5400000   0.5000000   1.0600000   0.7200000
   1.3800000   1.1200000   0.2200000   0.2200000  -0.1800000   1.2700000
   0.2800000  -0.2600000   2.3500000   0.9900000  -0.8800000   0.9300000
  -1.0400000  -0.8700000   0.7900000  -1.9600000  -0.2600000   0.3300000
  -1.1000000  -2.2600000   0.7800000  -0.2600000  -2.7700000   1.0000000
  -2.0000000  -2.9400000  -0.1100000  -3.0100000  -2.6700000   0.2000000
  -1.9500000  -4.0200000  -0.0200000  -1.9300000  -2.6000000  -1.6100000
  -0.7900000  -2.2700000  -1.9900000  -3.0100000  -2.6500000  -2.4500000
  -3.9100000  -2.9800000  -2.1200000  -2.9100000  -2.6600000  -3.9200000
  -2.2800000  -1.8000000  -4.1700000  -3.9100000  -2.5100000  -4.3200000
  -2.2000000  -3.9100000  -4.4800000  -2.4600000  -5.0100000  -4.0100000
  -1.2400000  -3.7300000  -5.4300000  -1.0800000  -2.7600000  -5.6500000
  -0.1500000  -4.7300000  -5.7800000   0.2800000  -5.1000000  -4.8500000
   0.9500000  -4.0200000  -6.5500000   0.7000000  -3.2200000  -7.5000000
  -0.7000000  -5.9500000  -6.5800000   0.0800000  -6.5100000  -7.0900000
  -1.1500000  -6.6600000  -5.8800000  -1.8100000  -5.5000000  -7.5500000
  -1.4400000  -4.6600000  -8.1300000  -2.7600000  -5.2100000  -7.1100000
  -2.0400000  -6.5800000  -8.6100000  -1.6000000  -7.7000000  -8.3900000
  -2.7400000  -6.3400000  -9.6400000   2.2500000  -4.1800000  -6.1400000
   2.5000000  -4.7600000  -5.3600000   3.4300000  -3.4500000  -6.7400000
   4.2400000  -4.1000000  -6.4200000   3.5300000  -3.3700000  -7.8200000
   3.6800000  -2.0400000  -6.1000000   3.0500000  -1.7100000  -5.0400000
   4.5700000  -1.2600000  -6.7000000   4.9500000  -1.6300000  -7.5500000
   5.4400000  -0.3400000  -5.9300000   4.8300000   0.5200000  -5.6600000
   6.2300000   0.0300000  -6.5900000   6.1200000  -0.9000000  -4.6700000
   6.4400000  -2.0600000  -4.6000000   6.2900000  -0.1000000  -3.6200000
   5.8900000   0.8300000  -3.6800000   6.4000000  -0.5900000  -2.1800000
   7.3000000  -1.1900000  -2.1100000   5.2900000  -1.5700000  -1.6700000
   5.4300000  -2.0800000  -0.5700000   6.5500000   0.6400000  -1.2700000
   5.7200000   1.3000000  -1.5500000   6.3900000   0.3400000  -0.2400000
   7.7900000   1.4900000  -1.2700000   9.0100000   0.8600000  -1.5900000
   9.0300000  -0.2200000  -1.6400000   7.8600000   2.8900000  -0.9800000
   6.9800000   3.4500000  -0.7400000  10.2100000   1.5900000  -1.8000000
  11.1400000   1.1000000  -2.0500000   9.0100000   3.6100000  -1.2200000
   9.0000000   4.6800000  -1.1200000  10.2200000   2.9400000  -1.5000000
  11.1000000   3.5400000  -1.6800000   4.1700000  -1.7500000  -2.4200000
   4.0400000  -1.3500000  -3.3400000   2.9700000  -2.2900000  -1.7700000
   2.1600000  -2.1200000  -2.4800000   2.6800000  -1.6100000  -0.9700000
   3.0300000  -3.8400000  -1.4100000   4.0600000  -4.5200000  -1.6600000
   1.8200000  -4.3400000  -1.0200000   0.9800000  -3.7800000  -1.0700000
   1.6700000  -5.8300000  -0.7400000   2.6100000  -6.3400000  -0.9600000
   1.4900000  -6.0000000   0.3200000   0.5700000  -6.5300000  -1.5500000
   0.6300000  -6.5700000  -2.7600000  -0.4400000  -7.0700000  -0.8500000
  -0.4300000  -6.9100000   0.1500000  -1.7100000  -7.4300000  -1.3900000
  -2.0700000  -6.8100000  -2.2100000  -2.8000000  -7.1500000  -0.3600000
  -2.5100000  -6.6700000   0.7300000  -1.7600000  -8.8900000  -1.8500000
  -1.0700000  -9.4100000  -1.2000000  -2.7400000  -9.3400000  -1.6800000
  -1.3500000  -9.1500000  -3.3400000  -2.0000000  -8.6000000  -4.0100000
  -0.3300000  -8.7700000  -3.4800000  -1.4600000 -10.6500000  -3.6000000
  -0.7800000 -11.1000000  -2.8700000  -2.5200000 -10.8900000  -3.6000000
  -1.0900000 -10.9500000  -5.0500000  -1.5100000 -11.9100000  -5.3500000
  -1.4900000 -10.1500000  -5.6700000   0.3800000 -11.0400000  -5.0900000
   0.7400000 -11.7600000  -4.4800000   0.7800000 -10.1200000  -5.0300000
   0.6200000 -11.3500000  -6.0200000  -4.0600000  -7.3900000  -0.7100000
  -4.3300000  -7.7700000  -1.6100000  -5.0900000  -7.0100000   0.1900000
  -5.9800000  -7.6300000   0.0900000  -4.7800000  -6.8900000   1.2300000
  -5.5100000  -5.5500000  -0.0300000  -4.9300000  -4.8500000  -0.8100000
  -6.4200000  -5.0900000   0.7800000  -6.6900000  -5.7100000   1.5300000
  -7.2500000  -3.8500000   0.5800000  -7.6200000  -3.8100000  -0.4400000
  -6.4200000  -2.6000000   0.9000000  -6.0300000  -2.4100000   2.0600000
  -8.5200000  -3.9400000   1.4400000  -8.1800000  -3.6500000   2.4400000
  -9.2100000  -3.1200000   1.2400000  -9.2200000  -5.2100000   1.5400000
 -10.2200000  -5.6000000   0.7100000 -10.5500000  -5.0500000  -0.1600000
  -8.9600000  -6.3500000   2.4000000 -10.7200000  -6.8800000   1.0700000
 -11.3100000  -7.4200000   0.4600000  -9.9000000  -7.3600000   2.0800000
  -8.0900000  -6.6200000   3.5200000  -7.4200000  -5.8500000   3.8700000
  -9.8500000  -8.6400000   2.6300000 -10.3500000  -9.4500000   2.1200000
  -8.0700000  -7.9100000   4.0700000  -7.4600000  -8.0500000   4.9500000
  -8.9000000  -8.9500000   3.6600000  -8.8700000  -9.9500000   4.0700000
  -6.1900000  -1.7500000  -0.0300000  -6.4100000  -2.0500000  -0.9700000
  -5.4500000  -0.4900000   0.1300000  -4.4800000  -0.7900000   0.5100000
  -5.8500000   0.1700000   0.9000000  -5.2700000   0.4600000  -1.0600000
  -6.3000000   0.7000000  -1.7500000  -4.0300000   0.9900000  -1.2600000
  -3.2600000   0.7100000  -0.6600000  -3.6200000   2.0800000  -2.2200000
  -2.8600000   2.6700000  -1.7100000  -4.4800000   2.7100000  -2.4600000
  -3.0200000   1.6000000  -3.5900000  -3.1900000   0.5000000  -3.9000000
  -2.3900000   2.4800000  -4.3600000  -2.4400000   3.4700000  -4.1500000
  -1.6900000   2.1400000  -5.6300000  -2.2600000   1.3700000  -6.1500000
  -0.1700000   1.7900000  -5.4700000   0.4800000   1.6200000  -6.5000000
  -1.7100000   3.4400000  -6.4700000  -1.3600000   4.2500000  -5.8300000
  -1.0200000   3.3700000  -7.3100000  -3.0100000   3.7100000  -7.2300000
  -3.7900000   2.7300000  -7.3400000  -3.3200000   4.7800000  -7.7300000
   0.2500000   1.7600000  -4.1900000  -0.4400000   1.9400000  -3.4800000
   1.6200000   1.6900000  -3.7100000   2.1000000   0.8700000  -4.2500000
   1.6000000   1.4100000  -2.6600000   2.4400000   2.9900000  -3.8300000
   1.9000000   4.0900000  -3.6400000   3.7300000   2.9200000  -4.0600000
   4.1200000   2.0000000  -4.2400000   4.6300000   4.0600000  -4.0500000
   4.1900000   4.9500000  -4.4900000   5.8200000   3.8500000  -4.9600000
   6.2500000   2.7400000  -5.1500000   5.0000000   4.4700000  -2.6000000
   6.0700000   4.2700000  -2.5200000   4.4700000   3.7400000  -2.0000000
   4.6900000   5.9000000  -2.1900000   5.6700000   6.8800000  -2.3200000
   6.6900000   6.5600000  -2.5100000   3.4200000   6.2400000  -1.7400000
   2.6900000   5.4700000  -1.5600000   5.3700000   8.2500000  -1.9900000
   6.1300000   9.0100000  -1.8400000   3.1300000   7.5600000  -1.3800000
   2.2100000   7.7500000  -0.8500000   4.0800000   8.6000000  -1.5500000
   3.7300000   9.8400000  -1.0900000   4.4200000  10.5000000  -1.0900000
   6.1800000   4.8200000  -5.6400000  -3.1950000   1.0670000   9.5520000
  -2.7950000  -0.3060000   9.1710000  -1.6930000  -0.3190000   8.2070000
  -1.1240000  -1.6310000   7.9560000  -0.1060000  -1.7110000   6.8570000
   0.6020000  -3.0530000   6.8320000   2.0200000  -3.0040000   6.4250000
   0.8790000  -0.7270000   7.0940000   1.0930000   0.2180000   6.2000000
   0.3930000   0.3820000   5.2540000   2.2610000   1.0140000   6.5550000
   2.2460000   2.3630000   6.3310000   3.4040000   3.1940000   6.5400000
   4.6730000   2.7090000   6.4260000   5.7460000   3.5160000   6.6250000
   5.5520000   4.8300000   6.9290000   6.5750000   5.6820000   7.1420000
   7.8480000   5.3220000   6.6340000   4.2660000   5.3300000   7.0480000
   3.2030000   4.5130000   6.8360000  -3.2194228   1.1508314  10.6485290
  -2.4691444   1.7865489   9.1453269  -4.1937375   1.2841183   9.1453269
  -2.4791975  -0.8458881  10.0758700  -3.6619805  -0.7882971   8.6958849
  -2.0671777   0.0807676   7.2529681  -0.8888927   0.2905555   8.6450109
  -0.6430254  -1.9717305   8.8847444  -1.9646864  -2.2587074   7.6255006
  -0.6308447  -1.5657994   5.9012517   0.5520712  -3.4837777   7.8429094
   0.0854867  -3.6583787   6.0725722   2.6580280  -2.9819525   7.3207869
   2.2603671  -3.8943750   5.8254535   2.1983320  -2.0991565   5.8254535
   3.1459456   0.5344662   6.9987551   1.3151183   2.8309099   5.9781266
   4.8292003   1.6507610   6.1696183   6.7656505   3.1118658   6.5414038
   8.5351195   5.1276850   7.4707248   7.7541029   4.4151854   6.0184754
   8.2429173   6.1436872   6.0184754   4.1065737   6.3855330   7.3133929
   2.1802094   4.9123611   6.9024096
