
  421  0.0000000e+00
   0.9640000  -1.0080000  12.2420000   0.6060000  -0.0760000  12.3960000
   1.9720000  -0.9570000  12.2850000   0.5860000  -1.6650000  12.9090000
   0.5260000  -1.4810000  10.9250000   1.0580000  -2.3390000  10.5140000
   0.5940000  -0.3580000   9.9160000   0.6730000   0.8200000  10.3100000
  -0.9350000  -1.8510000  11.0290000  -1.2680000  -2.1770000  10.0440000
  -0.9200000  -2.6930000  11.7210000  -1.6770000  -0.7960000  11.5520000
  -2.5830000  -1.0980000  11.6510000   0.5910000  -0.7040000   8.6220000
   0.6280000  -1.6870000   8.3940000   0.4180000   0.3030000   7.4890000
   0.9710000   1.1830000   7.8150000   0.8240000  -0.1090000   6.5650000
  -1.0870000   0.7270000   7.3700000  -1.7640000   0.6320000   8.3550000
  -1.5800000   0.9830000   6.1600000  -1.0160000   0.8400000   5.3350000
  -2.9450000   1.4680000   5.9890000  -3.0350000   2.5170000   6.2730000
  -3.6350000   0.8450000   6.5560000  -3.3970000   1.3130000   4.5520000
  -2.5980000   1.1900000   3.5770000  -4.7470000   1.2540000   4.3040000
  -5.4310000   1.4400000   5.0240000  -5.2700000   0.7880000   3.0180000
  -4.7420000  -0.1590000   2.9070000  -5.0910000   1.7460000   1.8830000
  -5.0510000   3.0020000   2.1020000  -6.7600000   0.5250000   3.1490000
  -7.1980000   0.3170000   2.1730000  -6.9160000  -0.3590000   3.7680000
  -7.5170000   1.5980000   3.7160000  -7.4970000   1.4990000   4.6710000
  -4.9420000   1.2660000   0.6210000  -4.9870000   0.2640000   0.5080000
  -4.6530000   2.0920000  -0.5840000  -5.5260000   2.3710000  -1.1730000
  -4.1700000   3.0230000  -0.2870000  -3.5810000   1.3450000  -1.4500000
  -2.5790000   0.9360000  -0.8460000  -3.8030000   1.2000000  -2.7640000
  -4.7520000   1.4030000  -3.0450000  -3.0060000   0.2820000  -3.5810000
  -2.9550000  -0.6870000  -3.0840000  -1.5650000   0.8230000  -3.5670000
  -1.4010000   1.8610000  -4.1890000  -3.6420000   0.1840000  -4.9990000
  -3.6710000   1.2270000  -5.3150000  -2.9590000  -0.3930000  -5.6230000
  -5.0110000  -0.5020000  -5.1130000  -4.8780000  -1.5670000  -4.9210000
  -5.6710000  -0.0920000  -4.3480000  -5.7400000  -0.1640000  -6.3930000
  -5.7850000   0.9130000  -6.5590000  -5.0510000  -0.4980000  -7.1680000
  -7.1230000  -0.8820000  -6.5130000  -7.1230000  -1.9710000  -6.4680000
  -7.6490000  -0.6380000  -5.5900000  -7.9760000  -0.4120000  -7.6620000
  -7.6670000  -0.6590000  -8.5920000  -8.9310000  -0.7420000  -7.6710000
  -8.1010000   0.5890000  -7.6220000  -0.6690000   0.0260000  -2.9770000
  -1.0290000  -0.6100000  -2.2800000   0.8410000   0.0890000  -3.0370000
   1.2770000  -0.7150000  -3.6300000   1.1490000  -0.1480000  -2.0190000
   1.4720000   1.4070000  -3.3770000   1.1500000   2.4630000  -2.8410000
   2.3830000   1.3740000  -4.3590000   2.6440000   0.4270000  -4.5930000
   2.9850000   2.5170000  -5.0120000   2.5570000   3.4270000  -4.5920000
   2.6210000   2.5420000  -6.4940000   2.2380000   1.5100000  -7.0570000
   4.5340000   2.5480000  -4.8440000   4.9200000   1.5900000  -5.1920000
   5.0120000   3.2840000  -5.4890000   5.0330000   2.6580000  -3.3880000
   4.4030000   2.0010000  -2.7890000   6.5550000   2.4870000  -3.3130000
   7.1140000   3.1680000  -3.9550000   6.9180000   1.4970000  -3.5900000
   6.8820000   2.6870000  -2.2930000   4.7690000   4.1330000  -2.9670000
   4.8230000   4.8230000  -3.8080000   5.4280000   4.4380000  -2.1540000
   3.7720000   4.0800000  -2.5280000   2.5950000   3.7020000  -7.1880000
   2.7190000   4.5640000  -6.6770000   2.2390000   3.9420000  -8.6410000
   2.5070000   4.9790000  -8.8460000   2.9160000   3.2290000  -9.1110000
   0.7350000   3.7490000  -8.8980000   0.1170000   4.2370000  -9.8690000
   0.0690000   2.9670000  -8.0040000   0.6880000   2.3890000  -7.4540000
  -1.3810000   2.7390000  -7.8170000  -1.5230000   1.9410000  -7.0880000
  -1.7710000   2.3290000  -8.7490000  -2.1790000   3.9940000  -7.3890000
  -1.7270000   5.0920000  -7.7500000  -3.2580000   3.8530000  -6.5920000
  -3.4890000   2.9010000  -6.3470000  -4.0870000   4.9870000  -6.2490000
  -5.0460000   4.6820000  -5.8300000  -4.3680000   5.5000000  -7.1690000
  -3.4240000   5.9930000  -5.3160000  -2.5390000   5.7720000  -4.4850000
  -3.9690000   7.2100000  -5.4890000  -4.6540000   7.4050000  -6.2050000
  -3.6050000   8.3550000  -4.7130000  -2.5400000   8.2620000  -4.5010000
  -4.3660000   8.3770000  -3.3970000  -5.4960000   7.8720000  -3.3340000
  -3.6740000   9.5890000  -5.5630000  -3.3700000   9.4450000  -6.6000000
  -2.9060000  10.2460000  -5.1540000  -5.0390000  10.2630000  -5.6370000
  -6.0710000   9.8660000  -6.4050000  -5.9830000   9.0910000  -7.1520000
  -5.6100000  11.2320000  -4.6750000  -7.1860000  10.6730000  -6.0960000
  -8.0100000  10.6660000  -6.6810000  -6.9060000  11.4900000  -5.0920000
  -5.0990000  11.8180000  -3.4950000  -4.1170000  11.5050000  -3.1710000
  -7.6830000  12.4450000  -4.4780000  -8.7230000  12.5140000  -4.7630000
  -5.9000000  12.7530000  -2.8960000  -5.4980000  13.2480000  -2.0250000
  -7.1910000  13.0860000  -3.3280000  -7.8030000  13.7760000  -2.7650000
  -3.7820000   8.9760000  -2.3320000  -2.8060000   9.2130000  -2.4350000
  -4.5380000   9.3570000  -1.1590000  -4.1120000  10.3030000  -0.8260000
  -5.5230000   9.6410000  -1.5300000  -4.6650000   8.3990000   0.0160000
  -4.8230000   8.8590000   1.1550000  -4.4520000   7.0990000  -0.2730000
  -4.4060000   6.9290000  -1.2680000  -4.4120000   6.0830000   0.7000000
  -4.9890000   6.3440000   1.5870000  -4.8800000   5.2120000   0.2410000
  -2.9950000   5.7910000   1.2210000  -2.0790000   6.6300000   1.1230000
  -2.7120000   4.5830000   1.7320000  -3.4030000   3.8490000   1.6800000
  -1.5550000   4.2340000   2.4990000  -0.6810000   4.5350000   1.9200000
  -1.5180000   3.1460000   2.5530000  -1.3850000   4.8070000   3.9000000
  -1.6220000   4.0910000   4.8870000  -1.0070000   6.0280000   3.9950000
  -1.1660000   6.5550000   3.1480000  -0.5690000   6.7450000   5.2260000
  -0.2250000   7.7630000   5.0400000   0.6050000   6.0280000   5.9360000
   1.7790000   6.3140000   5.5520000  -1.8260000   7.0290000   6.1040000
  -1.4420000   7.1660000   7.1150000  -2.3850000   6.0940000   6.1400000
  -2.7400000   8.1630000   5.5480000  -2.8000000   8.1560000   4.4600000
  -4.1790000   7.9760000   6.0530000  -4.2020000   8.1020000   7.1350000
  -4.5200000   6.9790000   5.7720000  -4.8930000   8.5820000   5.4960000
  -2.3340000   9.5850000   6.0470000  -2.9030000  10.4020000   5.6030000
  -1.3120000   9.8700000   5.7980000  -2.5400000   9.5530000   7.1170000
   0.4340000   5.2310000   6.9660000  -0.4950000   5.0540000   7.3220000
   1.4520000   4.3770000   7.4680000   2.3120000   4.9080000   7.8760000
   0.9990000   3.8720000   8.3210000   2.0660000   3.4360000   6.4770000
   3.2550000   3.1450000   6.6500000   1.3770000   3.0370000   5.4070000
   0.3800000   3.1970000   5.3900000   1.9930000   2.3460000   4.2760000
   2.8560000   1.7950000   4.6500000   2.3580000   3.0880000   3.5650000
   1.0380000   1.3440000   3.4920000   0.4990000   0.4100000   4.0890000
   0.9460000   1.6060000   2.1900000   1.5260000   2.3000000   1.7400000
  -0.0090000   1.0710000   1.2980000  -0.9970000   1.4860000   1.4980000
   0.3620000   1.4510000   0.3460000  -0.1020000  -0.4620000   1.2860000
   0.8700000  -1.1740000   1.3850000  -1.3110000  -0.9640000   1.0000000
  -2.0060000  -0.3220000   0.6450000  -1.9070000  -2.3390000   0.8000000
  -2.9670000  -2.2950000   1.0520000  -1.4180000  -3.1030000   1.4050000
  -1.8540000  -2.9140000  -0.6700000  -1.0970000  -2.4700000  -1.5250000
  -2.7530000  -3.8770000  -0.9490000  -3.5390000  -3.9520000  -0.3190000
  -2.7950000  -4.7100000  -2.1730000  -1.7850000  -5.0760000  -2.3540000
  -3.1940000  -4.0420000  -3.4550000  -4.3030000  -3.5350000  -3.4960000
  -3.6460000  -5.9800000  -1.9430000  -3.4670000  -6.5690000  -2.8430000
  -4.7050000  -5.7410000  -1.8490000  -3.1100000  -6.7600000  -0.7540000
  -3.2410000  -6.2480000   0.2000000  -2.0400000  -6.9160000  -0.8940000
  -3.8370000  -8.0850000  -0.6790000  -3.3600000  -9.0880000  -1.3110000
  -4.9610000  -8.2670000  -0.1510000  -2.3290000  -4.0840000  -4.4880000
  -1.4480000  -4.5430000  -4.3040000  -2.4630000  -3.5330000  -5.8320000
  -3.3700000  -2.9370000  -5.9370000  -2.4520000  -4.3040000  -6.6030000
  -1.2730000  -2.6310000  -6.1920000  -0.4290000  -2.2360000  -5.3870000
  -1.1580000  -2.3250000  -7.4770000  -1.8720000  -2.6450000  -8.1140000
   0.0760000  -1.5450000  -7.9480000   0.1240000  -0.6870000  -7.2770000
  -0.2140000  -1.2460000  -8.9550000   1.4500000  -2.2070000  -7.8230000
   1.6100000  -3.4180000  -7.5300000   2.4350000  -1.3250000  -7.9320000
   2.1560000  -0.3640000  -8.0700000   3.8300000  -1.5990000  -7.4690000
   4.1160000  -2.5750000  -7.8620000   3.8800000  -1.6920000  -5.9530000
   3.0230000  -1.1480000  -5.2530000   4.8170000  -0.6870000  -8.1790000
   4.5810000   0.3000000  -7.7800000   4.5660000  -0.8090000  -9.2330000
   6.3260000  -1.0410000  -8.0460000   6.8370000  -2.0670000  -8.9170000
   6.2140000  -2.5730000  -9.6410000   7.1630000  -0.4000000  -7.1620000
   6.8720000   0.3840000  -6.4790000   8.1350000  -2.5410000  -8.7350000
   8.5290000  -3.3340000  -9.3540000   8.4910000  -0.7730000  -7.0070000
   9.1040000  -0.2620000  -6.2800000   9.0050000  -1.8490000  -7.8100000
  10.0420000  -2.1480000  -7.7890000   4.8130000  -2.4030000  -5.4080000
   5.4650000  -2.8800000  -6.0150000   4.8920000  -2.7520000  -3.9740000
   5.8950000  -2.7570000  -3.5450000   4.3680000  -2.0110000  -3.3700000
   4.2110000  -4.0770000  -3.7250000   4.3490000  -4.6670000  -2.6590000
   3.4100000  -4.5980000  -4.6320000   3.1880000  -4.1290000  -5.4980000
   2.7510000  -5.8780000  -4.5790000   3.4300000  -6.6850000  -4.3060000
   2.2700000  -6.0370000  -5.5440000   1.7070000  -5.8340000  -3.5020000
   0.5360000  -5.5280000  -3.9180000   2.0060000  -6.1920000  -2.2250000
   2.9630000  -6.3880000  -1.9670000   1.1330000  -5.8810000  -1.0570000
   0.2630000  -5.3020000  -1.3660000   1.7480000  -4.8420000  -0.0810000
   1.2520000  -4.7030000   1.0610000   0.8830000  -7.0510000  -0.0760000
  -0.0140000  -6.8910000   0.5230000   1.7170000  -7.3480000   0.5590000
   0.5900000  -8.3300000  -0.8990000   1.4770000  -8.7110000  -1.4050000
  -0.1610000  -8.0800000  -1.6480000   0.0200000  -9.4600000  -0.0650000
  -0.8720000  -9.1060000   0.4510000   0.7390000  -9.8350000   0.6640000
  -0.3060000 -10.6470000  -0.9780000   0.4030000 -11.4730000  -0.9180000
  -0.4220000 -10.2790000  -1.9970000  -1.7070000 -11.1350000  -0.6970000
  -2.4180000 -10.4970000  -1.0260000  -1.9280000 -11.9560000  -1.2420000
  -1.7980000 -11.2240000   0.3040000   2.7380000  -4.0750000  -0.5460000
   3.0760000  -4.3100000  -1.4680000   3.3570000  -2.8990000  -0.0200000
   2.7970000  -1.9680000  -0.1170000   4.3090000  -2.6770000  -0.5010000
   3.5990000  -3.2060000   1.4700000   4.1580000  -4.2420000   1.7450000
   3.2850000  -2.3110000   2.3970000   2.8070000  -1.4740000   2.0940000
   3.4680000  -2.4850000   3.8330000   4.1520000  -3.3110000   4.0290000
   2.2290000  -2.8400000   4.5810000   2.3170000  -3.1430000   5.7830000
   4.1280000  -1.2350000   4.4520000   4.1870000  -1.3010000   5.5390000
   3.4270000  -0.4110000   4.3160000   5.4370000  -0.7810000   3.8470000
   6.1510000  -1.4350000   2.8560000   5.7530000  -2.3030000   2.3490000
   6.2350000   0.4720000   4.0220000   7.3020000  -0.7770000   2.5080000
   7.8910000  -1.1210000   1.7630000   7.3640000   0.3900000   3.1660000
   6.0780000   1.6280000   4.8320000   5.1330000   1.7730000   5.3350000
   8.3460000   1.4450000   3.1670000   9.2350000   1.3320000   2.5640000
   7.0100000   2.6970000   4.7520000   6.8120000   3.5190000   5.4240000
   8.1950000   2.5630000   4.0360000   8.9490000   3.3340000   3.9830000
   1.0310000  -2.8170000   3.9200000   1.0080000  -2.4430000   2.9820000
  -0.2430000  -3.2640000   4.3650000  -0.9040000  -2.9610000   3.5530000
  -0.4660000  -2.7470000   5.2980000  -0.3880000  -4.7440000   4.5660000
  -0.8640000  -5.1930000   5.5970000   0.1850000  -5.5320000   3.7190000
   0.6730000  -5.1460000   2.9230000  -0.0070000  -6.9560000   3.6800000
   0.2650000  -7.4070000   4.6340000   0.7550000  -7.2360000   2.9530000
  -1.4320000  -7.3810000   3.1840000  -2.2480000  -6.6540000   2.5950000
  -1.6960000  -8.6890000   3.4040000  -0.9530000  -9.2690000   3.7660000
  -3.0020000  -9.2210000   3.2200000  -3.1420000  -9.3250000   2.1440000
  -4.0970000  -8.3420000   3.6910000  -4.2000000  -8.0350000   4.9060000
  -3.0300000 -10.6030000   3.9000000  -3.9690000 -11.1320000   3.7350000
  -2.8850000 -10.5040000   4.9750000  -1.9340000 -11.5740000   3.3530000
  -1.3890000 -11.3320000   2.2630000  -1.8330000 -12.6110000   3.9790000
  -5.0510000  -7.9960000   2.8660000  -4.8320000  -8.1760000   1.8970000
  -6.3510000  -7.4790000   3.3560000  -6.5490000  -7.9660000   4.3110000
  -7.1960000  -7.7990000   2.7470000  -6.4250000  -5.9580000   3.4230000
  -7.5160000  -5.5000000   3.7730000  -5.3860000  -5.2180000   3.0230000
  -4.4830000  -5.6580000   2.9140000  -5.2830000  -3.8020000   3.0020000
  -6.1580000  -3.3470000   3.4670000  -5.4560000  -3.2140000   1.6360000
  -5.1100000  -3.8450000   0.6120000  -4.0520000  -3.2620000   3.7590000
  -3.9070000  -2.2460000   3.3910000  -3.1840000  -3.8050000   3.3860000
  -4.2070000  -3.2910000   5.3200000  -4.5790000  -2.0990000   5.9820000
  -4.8500000  -1.2620000   5.3550000  -3.8420000  -4.4420000   6.0350000
  -3.5580000  -5.3230000   5.4780000  -4.5310000  -2.0620000   7.3800000
  -4.7920000  -1.1210000   7.8400000  -3.7480000  -4.3610000   7.4640000
  -3.3630000  -5.2310000   7.9750000  -4.0540000  -3.1590000   8.1550000
  -3.9390000  -3.0140000   9.5320000  -3.9410000  -2.1430000   9.9360000
  -5.9410000  -2.0650000   1.6020000   6.8190000  -4.2750000   2.9870000
   7.2300000  -4.3670000   1.5440000   6.2840000  -3.6210000   0.6400000
   6.7210000  -3.6600000  -0.7890000   5.7500000  -3.0060000  -1.7450000
   6.4270000  -2.8280000  -3.0950000   5.8300000  -1.7770000  -3.9670000
   5.3820000  -1.7470000  -1.2200000   4.1170000  -1.5090000  -0.8580000
   3.2550000  -2.3360000  -0.9920000   3.8990000  -0.1560000  -0.2930000
   2.6790000   0.2390000   0.0840000   2.3760000   1.5830000   0.6300000
   3.3570000   2.4670000   0.9960000   3.0280000   3.7200000   1.5030000
   1.7160000   4.0890000   1.6470000   1.3290000   5.3040000   2.1310000
   2.3020000   6.2490000   2.5340000   0.7290000   3.2060000   1.2840000
   1.0560000   1.9530000   0.7790000   7.6903000  -4.4700000   3.6296000
   6.4292000  -3.2674000   3.1937000   6.0368000  -5.0203000   3.1937000
   8.2377000  -3.9401000   1.4337000   7.2136000  -5.4276000   1.2526000
   5.2859000  -4.0767000   0.7179000   6.2693000  -2.5688000   0.9604000
   7.6881000  -3.1421000  -0.8696000   6.7844000  -4.7204000  -1.0744000
   4.8530000  -3.6301000  -1.8712000   7.4801000  -2.5651000  -2.9163000
   6.2986000  -3.7802000  -3.6305000   5.3834000  -0.9909000  -3.3405000
   6.6139000  -1.3386000  -4.6021000   5.0520000  -2.2258000  -4.6021000
   4.7511000   0.5309000  -0.1827000   1.8498000  -0.4767000  -0.0171000
   4.4143000   2.1833000   0.8879000   3.8267000   4.4196000   1.7904000
   2.3422000   6.2881000   3.6326000   3.2858000   5.9525000   2.1414000
   2.0343000   7.2411000   2.1414000  -0.3275000   3.4922000   1.3936000
   0.2567000   1.2521000   0.4964000
