
  442  0.0000000e+00
  19.2500000  -6.7600000  11.9800000  19.6500000  -6.9200000  11.0600000
  20.1000000  -6.7800000  12.5300000  18.7800000  -5.8700000  11.8800000
  18.2700000  -7.8000000  12.3500000  17.7200000  -7.4000000  13.2000000
  18.8600000  -8.6100000  12.7800000  17.4500000  -8.1200000  11.1100000
  16.8400000  -7.2500000  10.5300000  17.5600000  -9.3200000  10.6400000
  18.1100000 -10.0000000  11.1400000  16.9300000  -9.7700000   9.4000000
  17.1800000  -9.1000000   8.5700000  15.3500000  -9.6900000   9.5100000
  14.7000000  -9.4400000   8.5000000  17.4300000 -11.1600000   9.1300000
  17.2200000 -11.8000000   9.9900000  18.5100000 -11.1300000   9.0300000
  17.0100000 -11.6400000   8.2500000  14.7700000  -9.9100000  10.7100000
  15.4100000 -10.0900000  11.4700000  13.4000000  -9.6800000  10.9300000
  13.0000000 -10.3100000  10.1400000  13.0100000  -8.2300000  10.8000000
  12.0100000  -7.9100000  10.1300000  12.8900000 -10.3300000  12.2300000
  11.8200000 -10.1100000  12.3300000  13.4000000  -9.9100000  13.1000000
  12.9700000 -11.4200000  12.2300000  13.7200000  -7.2900000  11.4900000
  14.5600000  -7.6200000  11.9300000  13.5300000  -5.8300000  11.4400000
  12.6200000  -5.5400000  11.9500000  13.3900000  -5.3300000   9.9600000
  12.4200000  -4.5500000   9.6300000  14.6600000  -5.1900000  12.2300000
  14.6400000  -5.4700000  13.2800000  15.6100000  -5.6000000  11.8900000
  14.6500000  -3.7000000  12.1000000  15.5400000  -3.3000000  12.5800000
  14.5900000  -3.4000000  11.0500000  13.3400000  -3.1200000  12.7400000
  12.6100000  -3.7900000  13.5400000  12.9600000  -1.9900000  12.3900000
  14.3800000  -5.8300000   9.1700000  15.1000000  -6.3900000   9.6000000
  14.5200000  -5.5400000   7.7600000  14.5300000  -4.5200000   7.3800000
  13.2800000  -6.1200000   6.9900000  12.8400000  -5.4700000   5.9900000
  15.8800000  -6.0800000   7.1800000  15.9600000  -6.1700000   6.1000000
  16.6800000  -5.4000000   7.4400000  15.9400000  -7.0700000   7.6400000
  12.7200000  -7.2900000   7.4000000  13.2800000  -7.8900000   7.9800000
  11.5300000  -7.7900000   6.6300000  11.5700000  -7.5300000   5.5800000
  10.1700000  -7.2400000   7.0900000   9.3300000  -6.9100000   6.2400000
  11.6500000  -9.2900000   6.7300000  10.8400000  -9.9000000   6.3500000
  12.5100000  -9.4600000   6.0800000  11.9500000  -9.6100000   7.7300000
  10.0700000  -6.7700000   8.3600000  10.7400000  -7.0900000   9.0500000
   9.0300000  -5.9100000   8.8600000   8.0400000  -6.3000000   8.6300000
   9.1400000  -4.5100000   8.2000000   8.0700000  -3.8900000   8.1500000
   8.9800000  -5.8200000  10.3800000   8.1000000  -5.2100000  10.5900000
   9.9000000  -5.3700000  10.7700000   8.7800000  -7.1300000  11.0600000
   9.6500000  -7.7600000  10.9000000   7.8500000  -7.5900000  10.7300000
   8.6100000  -6.8600000  12.5800000   7.6700000  -6.3400000  12.7600000
   9.3500000  -6.1000000  12.8000000   8.6200000  -8.1500000  13.3300000
   9.3700000  -8.7900000  13.0800000   7.9800000  -8.4600000  14.4300000
   6.8600000  -7.9000000  14.7600000   6.3800000  -8.0700000  15.6400000
   6.3800000  -7.3700000  14.0500000   8.4900000  -9.3300000  15.3400000
   8.1100000  -9.3200000  16.2700000   9.4400000  -9.6000000  15.1100000
  10.3200000  -4.0300000   7.7800000  11.1500000  -4.5400000   8.0300000
  10.4200000  -2.8100000   6.9800000   9.8400000  -2.0700000   7.5300000
   9.9100000  -3.1000000   5.5700000   9.4400000  -2.1500000   4.9600000
  11.9600000  -2.4100000   6.9700000  12.2400000  -1.6000000   6.3000000
  12.3400000  -2.0500000   7.9300000  12.5600000  -3.2800000   6.7000000
  10.2400000  -4.3400000   5.0500000  10.7400000  -4.9500000   5.6800000
   9.8400000  -4.7500000   3.6300000  10.1400000  -3.9600000   2.9400000
   8.2500000  -4.7600000   3.5400000   7.5900000  -4.0600000   2.7300000
  10.4600000  -6.0600000   3.1500000  10.1500000  -6.9600000   3.6900000
  11.5300000  -5.9500000   3.0500000  10.0900000  -6.2800000   2.1500000
   7.6100000  -5.4100000   4.5400000   8.1100000  -6.0200000   5.1800000
   6.1500000  -5.3300000   4.6900000   5.6900000  -5.7600000   3.8000000
   5.5700000  -3.9400000   4.9700000   4.6000000  -3.5500000   4.3200000
   5.7100000  -6.4300000   5.6600000   6.1500000  -7.3200000   5.2200000
   4.6200000  -6.3900000   5.6500000   5.9900000  -6.3200000   6.7100000
   6.2700000  -3.0900000   5.7700000   7.1600000  -3.2500000   6.2000000
   5.8000000  -1.7100000   5.9700000   4.8700000  -1.7800000   6.5300000
   5.7800000  -0.7900000   4.7500000   4.7800000  -0.0600000   4.4900000
   6.7600000  -1.1500000   7.0300000   7.7200000  -1.0900000   6.5100000
   6.9200000  -1.7600000   7.9100000   6.4600000  -0.1100000   7.1900000
   6.7800000  -0.8700000   3.8700000   7.6200000  -1.3400000   4.1600000
   6.6800000  -0.1700000   2.5400000   6.3400000   0.8500000   2.6900000
   5.6200000  -0.8600000   1.6100000   4.8700000  -0.0900000   1.0200000
   8.0400000  -0.0700000   1.9100000   8.1200000   0.4000000   0.9200000
   8.3700000  -1.0700000   1.6300000   8.6700000   0.4600000   2.6200000
   5.4800000  -2.2300000   1.5000000   6.1000000  -2.8900000   1.9400000
   4.5100000  -2.7000000   0.6000000   4.6700000  -2.2300000  -0.3700000
   3.0500000  -2.3600000   0.9800000   2.2600000  -1.9900000   0.1000000
   4.8200000  -4.2000000   0.3300000   4.9700000  -4.6000000   1.3400000
   6.1900000  -4.4800000  -0.3300000   6.8100000  -3.6900000   0.0900000
   6.2300000  -4.2000000  -1.3900000   3.7200000  -4.9900000  -0.4300000
   2.7900000  -4.8700000   0.1200000   3.9600000  -6.0500000  -0.5800000
   3.5700000  -4.4900000  -1.3900000   6.6500000  -5.9500000  -0.0800000
   5.8800000  -6.6700000  -0.3400000   7.5000000  -6.3000000  -0.6600000
   6.9000000  -6.1200000   0.9700000   2.8000000  -2.2300000   2.2400000
   3.5500000  -2.4900000   2.8700000   1.5300000  -1.6800000   2.8000000
   0.6700000  -2.2600000   2.4400000   1.3900000  -0.2300000   2.4000000
   0.2900000   0.0300000   1.8400000   1.4700000  -1.7100000   4.2900000
   2.4700000  -1.4200000   4.6200000   0.8900000  -0.9000000   4.7300000
   1.1200000  -3.0900000   4.9900000   0.0900000  -3.2800000   4.6900000
   1.8800000  -3.8100000   4.6800000   1.2500000  -2.8200000   6.5000000
   1.4800000  -3.7800000   6.9500000   2.0300000  -2.0800000   6.6900000
  -0.0600000  -2.4200000   7.1200000  -0.8500000  -2.6700000   6.5500000
  -0.2500000  -2.0300000   8.3600000   0.7000000  -1.9500000   9.2300000
   1.6400000  -2.1400000   8.9400000   0.6100000  -1.5000000  10.1400000
  -1.3900000  -1.6100000   8.8000000  -2.1400000  -1.3300000   8.1800000
  -1.5300000  -1.6300000   9.8000000   2.4200000   0.5500000   2.5300000
   3.3000000   0.2000000   2.8700000   2.3500000   1.9000000   2.0700000
   1.6300000   2.4200000   2.6900000   1.9300000   2.0500000   0.6300000
   0.9800000   2.7500000   0.3400000   3.7300000   2.5300000   2.4000000
   3.5900000   3.5800000   2.1700000   3.8900000   2.2200000   3.4300000
   4.5500000   2.1100000   1.8100000   2.7400000   1.4500000  -0.2300000
   3.5800000   0.9900000   0.1000000   2.4400000   1.5100000  -1.6300000
   2.4300000   2.5500000  -1.9700000   1.1200000   0.8600000  -2.0900000
   0.3400000   1.4900000  -2.8200000   3.6100000   0.7600000  -2.4300000
   3.5000000  -0.2600000  -2.0700000   3.4600000   0.9100000  -3.9600000
   4.1500000   0.2500000  -4.4900000   3.6800000   1.8900000  -4.3700000
   2.4300000   0.8200000  -4.2900000   4.9300000   1.3900000  -2.0300000
   5.0500000   2.4500000  -2.2500000   5.7400000   0.9700000  -2.6400000
   5.1400000   1.1300000  -0.9900000   0.8100000  -0.3200000  -1.5700000
   1.3900000  -0.6800000  -0.8300000  -0.4600000  -1.0200000  -1.9700000
  -0.5300000  -0.8900000  -3.0500000  -1.7200000  -0.3400000  -1.4200000
  -2.8600000  -0.6900000  -1.7700000  -0.3500000  -2.4800000  -1.6600000
  -1.3000000  -3.0200000  -1.7900000  -0.0300000  -2.5500000  -0.6300000
   0.6300000  -3.2400000  -2.4700000   1.6400000  -3.1000000  -2.0800000
   0.4900000  -2.9900000  -3.5200000   0.4200000  -4.7300000  -2.3600000
  -0.6000000  -4.9600000  -2.6600000   0.5300000  -4.9400000  -1.3000000
   1.4000000  -5.3700000  -3.2400000   1.6800000  -4.8100000  -4.0300000
   2.0900000  -6.4700000  -3.0600000   2.0400000  -7.2700000  -2.0200000
   1.4700000  -7.0800000  -1.2100000   2.6100000  -8.1000000  -2.0300000
   2.9400000  -6.8500000  -3.9700000   3.1000000  -6.3000000  -4.8000000
   3.6600000  -7.5300000  -3.7800000  -1.5800000   0.5800000  -0.4900000
  -0.6300000   0.8100000  -0.2400000  -2.6500000   1.4600000  -0.0500000
  -3.5300000   0.8300000  -0.1200000  -2.7900000   2.5800000  -1.1000000
  -3.8800000   3.0000000  -1.3200000  -2.3500000   1.9600000   1.3800000
  -3.1100000   2.6800000   1.6900000  -2.2200000   1.1500000   2.0900000
  -1.3600000   2.4100000   1.4500000  -1.6400000   3.1100000  -1.5900000
  -0.7300000   2.7300000  -1.3500000  -1.6100000   4.1300000  -2.6500000
  -2.1900000   4.9700000  -2.2800000  -2.3400000   3.7100000  -3.9500000
  -3.0900000   4.4300000  -4.5900000  -0.1900000   4.6300000  -2.8000000
   0.4600000   3.8600000  -3.2200000   0.2500000   4.8300000  -1.8300000
  -0.0700000   5.5800000  -3.3200000  -1.9400000   2.4800000  -4.3300000
  -1.2800000   1.9400000  -3.7900000  -2.4800000   1.9100000  -5.5400000
  -2.3100000   2.5000000  -6.4500000  -4.0000000   1.6700000  -5.4400000
  -4.7900000   2.1100000  -6.3000000  -1.8000000   0.5600000  -5.7400000
  -2.2900000   0.1100000  -6.6000000  -1.9700000  -0.0700000  -4.8700000
  -0.2300000   0.7600000  -6.1000000   0.1600000   1.4400000  -5.3400000
   0.4000000  -0.6800000  -6.0900000  -0.1100000  -1.2900000  -6.8300000
   1.4800000  -0.6800000  -6.2300000   0.2200000  -1.1300000  -5.1200000
   0.1100000   1.3800000  -7.4800000   1.1900000   1.2500000  -7.5900000
  -0.3400000   0.8000000  -8.2800000  -0.1400000   2.4400000  -7.5100000
  -4.3600000   1.0900000  -4.2800000  -3.6700000   0.7600000  -3.6200000
  -5.7900000   0.9000000  -3.9100000  -6.2500000   0.2900000  -4.6800000
  -6.6100000   2.2300000  -3.8600000  -7.7500000   2.2700000  -4.3900000
  -6.0000000   0.2000000  -2.4800000  -6.9200000   0.6300000  -2.0700000
  -5.1200000   0.3500000  -1.8600000  -6.2600000  -1.3100000  -2.6800000
  -5.3600000  -1.7800000  -3.0700000  -6.9800000  -1.5300000  -3.4700000
  -6.7300000  -1.9500000  -1.3700000  -6.9600000  -2.9800000  -1.6000000
  -7.5300000  -1.3400000  -0.9600000  -5.6100000  -1.9300000  -0.3900000
  -4.7100000  -1.7200000  -0.7900000  -5.7200000  -1.9900000   0.9100000
  -6.8000000  -2.3000000   1.5400000  -7.6100000  -2.6600000   1.0500000
  -6.8500000  -2.3000000   2.5500000  -4.6700000  -1.9600000   1.6900000
  -4.8800000  -1.7600000   2.6600000  -3.7200000  -1.8700000   1.3500000
  -6.0300000   3.3200000  -3.4100000  -5.1500000   3.3700000  -2.9300000
  -6.6900000   4.6000000  -3.2900000  -7.7400000   4.4200000  -3.0700000
  -6.6800000   5.4000000  -4.6200000  -7.6100000   6.1500000  -4.9500000
  -6.1000000   5.3900000  -2.0900000  -6.6800000   6.2500000  -1.7700000
  -6.0300000   4.8800000  -1.1300000  -5.1100000   5.6800000  -2.4300000
  -5.7000000   5.2200000  -5.5000000  -4.9600000   4.6100000  -5.1600000
  -5.5900000   5.9100000  -6.7800000  -5.9900000   6.8800000  -6.4800000
  -6.6300000   5.3300000  -7.7700000  -7.2000000   6.1000000  -8.5900000
  -4.1500000   5.9300000  -7.2900000  -3.4600000   5.9300000  -6.4500000
  -3.9800000   6.7700000  -7.9700000  -3.8500000   5.0600000  -7.8700000
  -6.9100000   4.0100000  -7.7300000  -6.3300000   3.5300000  -7.0500000
  -8.0500000   3.3600000  -8.4000000  -8.0200000   3.5700000  -9.4700000
  -9.3500000   3.9700000  -7.8900000 -10.3200000   4.1600000  -8.6500000
  -7.9800000   1.8300000  -8.1700000  -7.2600000   1.4800000  -8.9000000
  -7.6400000   1.6300000  -7.1500000  -9.0200000   1.5400000  -8.3200000
  -9.4900000   4.2600000  -6.5600000  -8.7000000   4.0900000  -5.9600000
 -10.7500000   4.6800000  -5.9600000 -11.5200000   4.1200000  -6.4900000
 -10.9800000   6.1400000  -6.3600000 -12.0500000   6.5100000  -6.7500000
 -10.6800000   4.5000000  -4.4800000  -9.9100000   5.2000000  -4.1700000
 -11.6300000   4.6900000  -3.9800000 -10.4200000   3.4700000  -4.2400000
  -9.9800000   6.9300000  -6.4200000  -9.0900000   6.5800000  -6.1000000
 -10.0800000   8.3000000  -6.9800000 -10.7800000   8.8500000  -6.3500000
 -10.6300000   8.3200000  -8.4400000 -11.5400000   9.0900000  -8.7200000
  -8.6700000   8.9700000  -6.7900000  -7.9300000   8.4900000  -7.4300000
  -8.3100000   8.7600000  -5.7800000  -8.6100000  10.4800000  -7.1300000
  -8.9200000  10.6500000  -8.1700000  -9.6400000  11.2800000  -6.3000000
 -10.6200000  11.4100000  -6.7700000  -9.3000000  12.2800000  -6.0200000
  -9.7800000  10.7000000  -5.3900000  -7.1700000  10.9700000  -7.0400000
  -7.2300000  12.0600000  -7.0000000  -6.6700000  10.6200000  -7.9500000
  -6.7500000  10.6200000  -6.1000000 -10.2000000   7.3300000  -9.3000000
  -9.5200000   6.6700000  -8.9400000 -10.6900000   7.2500000 -10.6600000
 -10.5300000   8.2400000 -11.0900000 -12.2000000   6.8800000 -10.6000000
 -12.9700000   7.4900000 -11.3400000  -9.8200000   6.2300000 -11.2900000
  -8.7800000   6.5500000 -11.2000000 -10.1100000   6.2000000 -12.3400000
  -9.9800000   5.2600000 -10.8200000 -12.6400000   6.0600000  -9.6700000
 -12.1200000   5.5500000  -8.9700000 -14.0700000   5.8400000  -9.4700000
 -14.6500000   5.4300000 -10.2900000 -14.8100000   7.0900000  -9.0800000
 -15.9300000   7.3200000  -9.4700000 -14.3000000   4.7400000  -8.4600000
 -13.5200000   3.9800000  -8.5600000 -15.3300000   4.4100000  -8.5200000
 -14.2600000   5.1400000  -7.4500000 -14.2700000   8.0700000  -8.3000000
 -13.3700000   7.8800000  -7.8700000 -14.8200000   9.3600000  -8.1000000
 -15.8600000   9.2600000  -7.7900000 -14.6600000  10.3700000  -9.2200000
 -15.3600000  11.3800000  -9.0800000 -14.2800000   9.9800000  -6.8400000
 -14.4900000   9.3200000  -5.9900000 -13.2000000  10.1100000  -6.9200000
 -14.6800000  10.9800000  -6.7100000 -13.8300000  10.1600000 -10.2300000
 -13.1200000   9.4500000 -10.1300000 -13.8100000  11.0200000 -11.4400000
 -14.2500000  12.0000000 -11.2500000 -14.5000000  10.4800000 -12.6700000
 -14.4700000  11.0700000 -13.7900000 -12.3100000  11.1500000 -11.8500000
 -11.8400000  10.1800000 -12.0300000 -12.2700000  11.6800000 -12.7900000
 -11.4000000  11.8500000 -10.7700000 -11.4300000  11.3300000  -9.8100000
  -9.8700000  11.8200000 -11.2700000  -9.8700000  12.3400000 -12.2300000
  -9.5500000  10.8000000 -11.4900000  -9.2000000  12.2600000 -10.5400000
 -11.8700000  13.2500000 -10.6800000 -12.9100000  13.2800000 -10.3600000
 -11.8100000  13.6500000 -11.6900000 -11.1800000  13.7800000 -10.0200000
 -15.2200000   9.3400000 -12.4700000 -15.0900000   8.8600000 -11.5900000
 -16.0100000   8.5800000 -13.5100000 -15.4400000   8.6400000 -14.4400000
 -17.3800000   9.0700000 -13.6500000 -18.0600000   9.3700000 -12.6500000
 -16.0400000   7.0600000 -13.1900000 -15.0200000   6.7100000 -13.3400000
 -16.7600000   6.5600000 -13.8400000 -16.3300000   6.8900000 -12.1500000
 -17.8400000   9.0600000 -14.7800000  -5.5190000   4.8410000   1.7680000
  -5.5820000   3.4380000   1.8150000  -6.6780000   2.8640000   1.3030000
  -7.4900000   3.6120000   0.4460000  -8.5960000   3.0400000  -0.1310000
  -8.8810000   1.7350000   0.1610000 -10.0770000   1.1190000  -0.5060000
 -11.0910000   1.0310000   0.1290000 -10.0730000   0.7510000  -1.8920000
  -9.4180000  -0.4120000  -2.2260000  -9.3380000  -0.7630000  -3.5550000
  -9.9270000   0.0460000  -4.4960000 -10.5350000   1.1620000  -4.1740000
 -10.6250000   1.5130000  -2.8440000  -8.1100000   1.0000000   1.0460000
  -8.4900000  -0.2540000   1.3360000  -7.0180000   1.5800000   1.6150000
  -5.5010052   5.2417415   2.7922473  -4.6060981   5.1494787   1.2374804
  -6.4005799   5.2300577   1.2374804  -7.2418473   4.6623326   0.2333460
  -9.2379999   3.6176959  -0.8122514  -8.9682969  -1.0471912  -1.4486331
  -8.8096810  -1.6786721  -3.8590125  -9.8872438  -0.2522007  -5.5540623
 -10.9664646   1.8080146  -4.9527833 -11.1581511   2.4325828  -2.5609498
  -7.9557550  -0.8000055   1.9657304  -6.4063227   1.0105080   2.3302131
