
  400  0.0000000e+00
   9.3990000  -1.8740000   3.0940000   9.5430000  -2.8650000   2.9600000
  10.3100000  -1.4490000   3.1890000   9.0170000  -1.4520000   2.2600000
   8.5020000  -1.6700000   4.1950000   8.8340000  -2.2600000   5.0500000
   7.0860000  -2.1800000   3.8570000   6.7020000  -1.9550000   2.7580000
   8.4170000  -0.1910000   4.6530000   7.9480000   0.4230000   3.8840000
   7.7750000  -0.1340000   5.5320000   9.7090000   0.4960000   4.9940000
  10.2570000   0.0570000   5.8280000  10.4840000   0.5020000   4.2270000
   9.5730000   2.0090000   5.2970000  10.5080000   2.4340000   5.6620000
   8.7850000   2.0570000   6.0490000   9.2250000   2.8270000   4.2040000
   9.4130000   2.4370000   3.2910000   8.8390000   4.0740000   4.1910000
   8.6070000   4.7160000   5.2990000   8.6160000   4.1780000   6.1530000
   8.4790000   5.7170000   5.2580000   8.8460000   4.7080000   3.0390000
   9.1540000   4.3100000   2.1630000   8.6030000   5.6780000   2.8990000
   6.3420000  -2.6770000   4.8720000   6.7040000  -2.5970000   5.8120000
   4.9900000  -3.2480000   4.5160000   4.9970000  -4.2390000   4.0610000
   4.4920000  -2.5370000   3.8570000   4.1100000  -3.5170000   5.6750000
   4.3340000  -2.9730000   6.7790000   3.0600000  -4.3340000   5.5050000
   2.9770000  -4.6310000   4.5430000   2.1070000  -4.7660000   6.5350000
   2.0460000  -4.0580000   7.3620000   2.6020000  -5.6330000   6.9710000
   0.7610000  -5.2560000   5.9470000   0.6310000  -5.4170000   4.7570000
  -0.2690000  -5.4580000   6.7380000  -0.1630000  -5.1190000   7.6840000
  -1.4870000  -5.9590000   6.2260000  -1.1710000  -6.8450000   5.6760000
  -2.2600000  -4.9380000   5.3370000  -2.2270000  -3.7230000   5.5670000
  -2.2960000  -6.4740000   7.4150000  -3.1360000  -7.0580000   7.0380000
  -2.7340000  -5.5700000   7.8370000  -1.4900000  -7.2750000   8.4430000
  -0.9010000  -6.6110000   9.3070000  -1.4170000  -8.5540000   8.3970000
  -2.9870000  -5.4210000   4.3260000  -2.9750000  -6.3870000   4.0340000
  -3.7280000  -4.5290000   3.3820000  -2.9490000  -3.8560000   3.0230000
  -4.0970000  -5.0780000   2.5160000  -4.8020000  -3.6130000   3.9340000
  -5.2400000  -3.8830000   5.0450000  -5.0540000  -2.3910000   3.3170000
  -4.5060000  -2.1600000   2.5000000  -5.8410000  -1.2710000   3.9080000
  -6.8980000  -1.5340000   3.9190000  -5.5380000  -1.1640000   4.9500000
  -5.7440000   0.0910000   3.1650000  -5.3550000   0.1770000   2.0140000
  -6.0540000   1.2350000   3.8080000  -6.5200000   1.2250000   4.7050000
  -6.3370000   2.4720000   3.0860000  -6.6180000   2.2460000   2.0570000
  -5.1850000   3.3570000   2.9280000  -5.1680000   4.5710000   3.2330000
  -7.5900000   3.1250000   3.6970000  -7.9040000   3.9830000   3.1020000
  -7.3130000   3.3890000   4.7170000  -8.8340000   2.1740000   3.7200000
  -8.7770000   1.2910000   4.3560000  -9.1000000   1.8170000   2.7240000
 -10.1130000   2.8020000   4.2710000 -10.9180000   2.0670000   4.2630000
  -9.9960000   3.1960000   5.2800000 -10.5650000   3.9660000   3.2850000
 -10.0520000   4.8420000   3.6820000 -10.1870000   3.7980000   2.2770000
 -12.0210000   4.2750000   3.2170000 -12.2250000   4.7700000   2.3610000
 -12.2700000   4.9100000   3.9620000 -12.5890000   3.4410000   3.1880000
  -4.1160000   2.6900000   2.6580000  -4.1870000   1.6870000   2.5650000
  -2.8060000   3.2780000   2.3800000  -2.2360000   2.4850000   1.8940000
  -2.8570000   4.1340000   1.7080000  -1.9840000   3.7340000   3.5820000
  -0.8160000   4.0550000   3.4530000  -2.5540000   3.6670000   4.8160000
  -3.5240000   3.3920000   4.7610000  -2.1090000   4.1990000   6.1070000
  -2.2700000   5.2750000   6.0480000  -2.8560000   3.9200000   6.8500000
  -0.7040000   3.9150000   6.4810000  -0.1030000   4.8810000   7.0180000
  -0.1160000   2.8060000   6.1160000  -0.6880000   2.1320000   5.6270000
   1.3060000   2.5620000   6.2660000   1.6450000   3.1190000   7.1400000
   1.4500000   1.5020000   6.4740000   2.1220000   2.8440000   5.0150000
   3.1930000   3.4120000   5.1800000   1.6210000   2.6090000   3.8000000
   0.8040000   2.0290000   3.6750000   2.1820000   3.1490000   2.5460000
   1.8960000   4.2010000   2.5240000   3.2560000   3.0710000   2.3730000
   1.4300000   2.7030000   1.2190000   0.4400000   1.9670000   1.1680000
   2.0030000   3.2850000   0.1190000   2.7410000   3.9640000   0.2380000
   1.6290000   2.9440000  -1.2760000   0.5610000   2.9160000  -1.4930000
   2.1960000   1.5220000  -1.6510000   3.1580000   1.1010000  -1.0430000
   2.2220000   3.9860000  -2.2590000   3.3100000   3.9440000  -2.1940000
   2.0630000   3.7680000  -3.3150000   1.6830000   5.4380000  -2.1330000
   1.8640000   5.6620000  -1.0820000   2.4450000   6.2880000  -3.1080000
   2.1010000   6.0570000  -4.1160000   3.5250000   6.1930000  -2.9970000
   2.2340000   7.3460000  -2.9540000   0.1980000   5.5780000  -2.4100000
   0.0160000   5.7190000  -3.4760000  -0.1270000   6.4340000  -1.8180000
  -0.3940000   4.7570000  -2.0060000   1.6580000   0.7720000  -2.5990000
   0.8680000   1.1390000  -3.1100000   1.9400000  -0.6410000  -2.8430000
   1.1870000  -1.1280000  -3.4620000   2.0820000  -1.1010000  -1.8650000
   3.2460000  -1.0270000  -3.5770000   3.3020000  -2.1150000  -4.0710000
   4.1900000  -0.0870000  -3.6390000   4.1110000   0.7180000  -3.0340000
   5.5330000  -0.2410000  -4.2320000   6.0220000  -1.0830000  -3.7410000
   6.0960000   0.6510000  -3.9570000   5.5750000  -0.3760000  -5.7730000
   5.4160000   0.6560000  -6.4720000   5.7940000  -1.5980000  -6.3000000
   5.9080000  -2.3640000  -5.6520000   5.8130000  -1.9520000  -7.6550000
   6.2990000  -2.9170000  -7.8020000   6.3780000  -1.2200000  -8.2320000
   4.3600000  -2.1360000  -8.1550000   4.1030000  -1.8260000  -9.3090000
   3.4510000  -2.5270000  -7.2890000   3.8770000  -2.7410000  -6.3980000
   1.9920000  -2.4740000  -7.3400000   1.6380000  -2.9430000  -8.2580000
   1.5770000  -2.9630000  -6.4590000   1.4970000  -1.0620000  -7.2250000
   1.5140000  -0.4990000  -6.1200000   1.1490000  -0.4750000  -8.3410000
   1.1640000  -0.9810000  -9.2150000   0.9480000   0.9630000  -8.4910000
   1.5780000   1.5600000  -7.8320000  -0.4510000   1.4060000  -8.0950000
  -0.6510000   2.6110000  -7.8760000   1.2270000   1.4500000  -9.9000000
   0.4690000   1.1420000 -10.6200000   1.0830000   2.5300000  -9.9120000
   2.6400000   1.1540000 -10.5110000   2.7700000   1.6450000 -11.4760000
   2.6710000   0.0720000 -10.6360000   3.8460000   1.6320000  -9.6360000
   3.7560000   1.2460000  -8.6210000   3.8060000   2.7170000  -9.5460000
   5.3140000   1.2380000 -10.0150000   5.5610000   1.6570000 -10.9900000
   5.4130000   0.1620000 -10.1590000   6.1710000   1.7950000  -8.9360000
   7.1490000   1.6000000  -9.1000000   5.9600000   1.4380000  -8.0150000
   6.1510000   2.8040000  -8.9840000  -1.4360000   0.4660000  -8.1510000
  -1.1650000  -0.4180000  -8.5580000  -2.8880000   0.6590000  -8.1190000
  -3.0620000   1.5880000  -8.6620000  -3.3620000  -0.2250000  -8.5450000
  -3.4480000   0.8780000  -6.7070000  -2.6460000   0.7790000  -5.7670000
  -4.7030000   1.3180000  -6.6610000  -5.1650000   1.6140000  -7.5090000
  -5.2950000   1.6860000  -5.3620000  -4.6580000   2.4670000  -4.9490000
  -5.3460000   0.4650000  -4.3150000  -4.7630000   0.5870000  -3.2600000
  -6.7940000   2.2860000  -5.5240000  -7.4000000   1.5150000  -6.0020000
  -6.9190000   3.3430000  -6.5600000  -6.3220000   4.2150000  -6.2940000
  -6.6810000   2.9610000  -7.5530000  -7.5250000   2.6330000  -4.1290000
  -7.1460000   3.5360000  -3.6510000  -8.5690000   2.8870000  -4.3110000
  -7.4940000   1.8560000  -3.3650000  -8.3210000   3.8250000  -6.7250000
  -8.4130000   4.4730000  -7.5970000  -8.5690000   4.3520000  -5.8040000
  -9.0300000   3.0180000  -6.9080000  -5.8430000  -0.6960000  -4.7090000
  -6.2580000  -0.7410000  -5.6280000  -5.8920000  -1.9730000  -3.8580000
  -6.4290000  -2.7630000  -4.3840000  -6.4330000  -1.7580000  -2.9370000
  -4.4720000  -2.5520000  -3.5280000  -4.3620000  -3.4740000  -2.7340000
  -3.3600000  -1.9460000  -3.9590000  -3.5010000  -1.1580000  -4.5750000
  -2.0060000  -2.2970000  -3.4760000  -1.8710000  -3.3560000  -3.2570000
  -1.5830000  -1.6030000  -2.0950000  -0.7010000  -2.1500000  -1.4010000
  -1.0430000  -2.1000000  -4.6230000  -0.0890000  -2.5400000  -4.3350000
  -0.8400000  -1.0330000  -4.7180000  -1.4420000  -2.6820000  -5.9690000
  -0.6770000  -2.3600000  -6.6760000  -2.3820000  -2.1910000  -6.2220000
  -1.3990000  -4.1840000  -5.9480000  -2.4260000  -4.8060000  -6.1600000
  -0.3850000  -4.8480000  -5.5940000  -2.2020000  -0.5600000  -1.6630000
  -2.7950000  -0.0510000  -2.3030000  -1.7760000   0.1350000  -0.4540000
  -2.2110000   1.1340000  -0.4140000  -0.6890000   0.1850000  -0.3960000
  -2.2530000  -0.6540000   0.8100000  -3.1530000  -1.5190000   0.8010000
  -1.5460000  -0.3530000   1.9010000  -0.8340000   0.3610000   1.8430000
  -1.5070000  -1.2420000   3.1180000  -2.5180000  -1.6420000   3.1930000
  -1.3050000  -0.4520000   4.4500000  -1.0190000   0.7470000   4.3930000
  -0.4010000  -2.2920000   2.9980000  -0.2780000  -2.6930000   4.0040000
  -0.5900000  -3.1590000   2.3640000   0.9800000  -1.7710000   2.5670000
   1.3540000  -1.5390000   1.3010000   0.8520000  -1.7180000   0.3620000
   1.9830000  -1.1140000   3.3650000   2.5970000  -0.8550000   1.3230000
   2.8970000  -0.4130000   0.4650000   2.9880000  -0.5840000   2.5520000
   2.2000000  -0.9800000   4.7120000   1.4670000  -1.5040000   5.3070000
   4.1570000   0.0380000   3.0490000   4.9210000   0.3770000   2.3660000
   3.3730000  -0.4490000   5.2850000   3.4330000  -0.4760000   6.3630000
   4.4190000   0.0320000   4.4320000   5.3510000   0.2800000   4.9180000
  -1.5470000  -1.0460000   5.5780000  -1.7800000  -2.0270000   5.6440000
  -1.7760000  -0.2660000   6.8000000  -1.9190000   0.7710000   6.4970000
  -1.0250000  -0.3860000   7.5810000  -3.1190000  -0.6260000   7.5340000
  -3.7250000   0.2580000   8.1040000  -3.7310000  -1.8500000   7.3950000
  -3.2950000  -2.6000000   6.8780000  -4.9710000  -2.2140000   8.0400000
  -5.7840000  -2.0320000   7.3380000  -5.0650000  -1.6240000   8.9520000
  -5.0480000  -3.6480000   8.4760000  -4.4810000  -4.0030000   9.4890000
  -5.7210000  -4.5720000   7.7330000  -5.9960000  -4.3400000   6.7900000
  -5.8870000  -5.9710000   8.1380000  -5.0180000  -6.3100000   8.7010000
  -5.9600000  -6.9880000   6.9590000  -6.1080000  -8.1530000   7.3010000
  -7.0460000  -6.0770000   9.1420000  -6.7590000  -5.4280000   9.9690000
  -7.0830000  -7.1080000   9.4940000  -8.4510000  -5.8160000   8.6420000
  -9.3400000  -5.8840000   9.5110000  -8.7870000  -5.4610000   7.4610000
  -5.9380000  -6.6500000   5.6470000  -5.8830000  -5.6770000   5.3800000
  -6.0990000  -7.4740000   4.4340000  -7.0010000  -8.0790000   4.5350000
  -6.3300000  -6.8500000   3.5710000  -4.9110000  -8.3450000   3.9960000
  -4.0300000  -8.5840000   4.7590000  -4.9190000  -8.7920000   2.7330000
  -5.7950000  -8.6250000   2.2590000  -3.7780000  -9.4150000   2.1500000
  -3.6800000 -10.4410000   2.5040000  -2.5060000  -8.6450000   2.3130000
  -2.5240000  -7.4000000   2.2850000  -3.9590000  -9.5170000   0.6130000
  -4.9830000  -9.8020000   0.3700000  -3.6060000  -8.6200000   0.1040000
  -3.1400000 -10.5930000   0.1680000  -2.3210000 -10.1890000  -0.1250000
  -1.3860000  -9.3540000   2.4240000  -1.3920000 -10.3640000   2.4080000
  -0.1900000  -8.7090000   2.8310000   0.5880000  -9.4420000   3.0460000
  -0.3640000  -8.0670000   3.6950000   0.2880000  -7.7450000   1.6820000
   0.3560000  -8.0990000   0.4990000   0.6820000  -6.5470000   1.9960000
   0.5770000  -6.3050000   2.9710000   1.2320000  -5.4640000   1.1890000
   0.6110000  -4.5720000   1.1010000   1.3130000  -5.9040000   0.1950000
   2.5980000  -4.9440000   1.6410000   3.0010000  -5.0380000   2.7980000
   3.3390000  -4.3260000   0.7450000   2.9320000  -4.3020000  -0.1790000
   4.6600000  -3.6450000   0.9580000   4.5210000  -3.0160000   1.8380000
   5.0730000  -2.6940000  -0.2530000   4.5460000  -2.8830000  -1.3720000
   5.7430000  -4.7190000   1.0790000   6.6460000  -4.1840000   1.3750000
   5.3910000  -5.4040000   1.8500000   6.1240000  -5.4880000  -0.1370000
   6.3260000  -4.8990000  -1.0320000   5.2670000  -6.0820000  -0.4550000
   7.1870000  -6.4730000   0.1200000   8.3570000  -6.0250000   0.2050000
   6.8680000  -7.6860000   0.3990000   5.9550000  -1.7740000   0.0850000
   6.2380000  -1.7090000   1.0520000   6.6750000  -0.9070000  -0.8910000
   6.0650000  -0.0180000  -1.0520000   6.6970000  -1.4320000  -1.8450000
   8.0360000  -0.5070000  -0.2770000   8.4900000  -1.2960000   0.5500000
   8.6170000   0.5660000  -0.7970000   8.0820000   1.0800000  -1.4820000
   9.9730000   1.0970000  -0.4580000  10.5990000   0.2740000  -0.1100000
   9.9890000   2.0330000   0.7650000  10.7360000   1.9170000   1.7940000
  10.7220000   1.7070000  -1.6040000  11.6730000   2.1540000  -1.3130000
  10.0930000   2.4760000  -2.0530000  11.0130000   0.6410000  -2.4570000
  11.8500000   0.7890000  -2.9020000   9.0520000   2.9020000   0.8300000
  -3.9640000   0.5590000  -4.5290000  -3.5320000   0.4590000  -3.0850000
  -3.0240000   1.7720000  -2.5610000  -1.7110000   1.6230000  -1.8650000
  -1.5420000   2.5360000  -0.6700000  -0.5580000   1.9480000   0.3300000
  -0.0190000   0.5750000  -0.0290000  -2.7960000   2.7060000  -0.0550000
  -3.1370000   3.9050000   0.3950000  -3.9740000   4.0720000   1.2560000
  -2.4310000   4.9900000  -0.3010000  -2.7160000   6.2600000   0.0100000
  -2.1400000   7.4010000  -0.7240000  -2.2480000   7.5220000  -2.0900000
  -1.7260000   8.6270000  -2.7430000  -1.0870000   9.6050000  -2.0290000
  -0.5690000  10.7240000  -2.6160000  -0.9650000  11.0780000  -3.9350000
  -0.9760000   9.4930000  -0.6550000  -1.4930000   8.3780000  -0.0070000
  -5.0347225   0.8068524  -4.5750698  -3.3833844   1.3464922  -5.0317340
  -3.7884806  -0.4035235  -5.0317340  -4.3924899   0.1423450  -2.4773104
  -2.7130375  -0.2728051  -3.0236667  -2.9028029   2.4684071  -3.4038098
  -3.7545428   2.1542646  -1.8328647  -1.6175612   0.5822378  -1.5213675
  -0.9322594   1.9003461  -2.5907012  -1.1453153   3.5041483  -1.0096030
   0.2948524   2.6375330   0.4147769  -1.1146847   1.8225617   1.2704081
   0.2008079   0.0150811   0.8919643  -0.7696541   0.0293164  -0.6195488
   0.9024083   0.6857196  -0.6195488  -1.6771461   4.7608181  -1.0685806
  -3.4052056   6.4596359   0.8437512  -2.7531048   6.7347635  -2.6689023
  -1.8249492   8.7184666  -3.8347156  -1.7843323  11.8104335  -3.8877162
  -0.1099238  11.5183096  -4.4688277  -1.3070875  10.1791095  -4.4688277
  -0.4791582  10.2854686  -0.0760858  -1.3839696   8.2772867   1.0829400
