
  421  0.0000000e+00
   1.9720000  -3.5240000  10.5150000   2.6250000  -2.9120000  10.9820000
   2.3720000  -3.6400000   9.5950000   2.1230000  -4.4220000  10.9510000
   0.5930000  -3.0410000  10.4670000  -0.0290000  -3.9120000  10.2610000
   0.4520000  -1.9780000   9.3390000   1.4640000  -1.6260000   8.7430000
  -0.0620000  -2.6040000  11.8010000  -1.0580000  -2.1640000  11.7620000
  -0.1460000  -3.4900000  12.4300000   0.8160000  -1.6540000  12.4050000
   0.2710000  -0.8780000  12.5590000  -0.7520000  -1.4880000   8.9550000
  -1.6550000  -1.7870000   9.2950000  -0.7900000  -0.4420000   7.8980000
  -0.2830000   0.4310000   8.3080000  -0.3510000  -0.8890000   7.0060000
  -2.1790000  -0.1030000   7.4570000  -3.0050000   0.3100000   8.2710000
  -2.3690000  -0.0700000   6.1180000  -1.6800000  -0.4480000   5.4830000
  -3.7000000   0.2060000   5.5540000  -3.8090000   1.2860000   5.6520000
  -4.4000000  -0.3000000   6.2190000  -3.8830000  -0.2120000   4.1050000
  -2.9350000  -0.6380000   3.4450000  -5.1220000  -0.0720000   3.6180000
  -5.9010000   0.2340000   4.1840000  -5.4990000  -0.4450000   2.1990000
  -4.9520000  -1.3730000   2.0310000  -5.0560000   0.6280000   1.1070000
  -5.7980000   1.1940000   0.3000000  -7.0270000  -0.8540000   2.0580000
  -7.3350000  -0.9530000   1.0170000  -7.2410000  -1.7830000   2.5870000
  -7.8580000   0.1720000   2.7130000  -7.7050000   0.1930000   3.6600000
  -3.7930000   1.0320000   1.2960000  -3.3170000   0.4720000   1.9890000
  -2.9700000   1.7900000   0.3410000  -3.5430000   2.5490000  -0.1910000
  -2.1540000   2.2200000   0.9220000  -2.3390000   0.8380000  -0.6890000
  -2.0320000  -0.3190000  -0.3400000  -2.4580000   1.2510000  -1.9350000
  -2.9900000   2.1100000  -1.9440000  -2.0980000   0.5770000  -3.1570000
  -2.2150000  -0.4980000  -3.0240000  -0.5680000   0.7240000  -3.4660000
  -0.2400000   1.3810000  -4.4830000  -3.0450000   1.0560000  -4.3060000
  -2.8730000   2.1090000  -4.5280000  -2.8070000   0.4910000  -5.2070000
  -4.5170000   0.6240000  -4.0650000  -4.6930000  -0.4510000  -4.0200000
  -4.7510000   1.0370000  -3.0830000  -5.5060000   1.1590000  -5.1560000
  -5.4500000   2.2480000  -5.1530000  -5.2910000   0.7230000  -6.1320000
  -6.9640000   0.7530000  -4.8410000  -7.2700000   1.0580000  -3.8410000
  -7.6760000   1.1650000  -5.5570000  -7.1420000  -0.6950000  -4.9930000
  -6.6320000  -1.2770000  -4.3450000  -8.0800000  -0.9780000  -4.7490000
  -6.8180000  -0.9890000  -5.9040000   0.3510000   0.2280000  -2.5690000
   0.0090000  -0.1400000  -1.6930000   1.8330000   0.1770000  -2.6920000
   2.2180000  -0.6930000  -3.2240000   2.3220000   0.0420000  -1.7270000
   2.4530000   1.4150000  -3.3560000   2.5050000   2.4030000  -2.6340000
   2.8170000   1.3780000  -4.6030000   2.8520000   0.4490000  -4.9970000
   3.1400000   2.5330000  -5.3460000   2.9680000   3.4010000  -4.7080000
   2.3390000   2.6150000  -6.6420000   2.1300000   1.6430000  -7.3430000
   4.6650000   2.5850000  -5.5540000   4.9760000   1.6580000  -6.0350000
   5.0100000   3.4610000  -6.1040000   5.5450000   2.7160000  -4.3060000
   5.2310000   1.9070000  -3.6460000   7.0490000   2.6730000  -4.6060000
   7.4790000   3.6260000  -4.9130000   7.1530000   1.9570000  -5.4220000
   7.4780000   2.3120000  -3.6710000   5.3730000   4.0670000  -3.5220000
   5.2410000   4.8850000  -4.2300000   6.1820000   4.2730000  -2.8210000
   4.4480000   4.1420000  -2.9500000   1.9560000   3.8120000  -7.1550000
   2.2260000   4.6540000  -6.6680000   1.4510000   3.9470000  -8.5470000
   1.3660000   5.0210000  -8.7120000   2.1210000   3.3780000  -9.1910000
   0.0240000   3.3670000  -8.7340000  -0.5570000   3.5320000  -9.8320000
  -0.5130000   2.6230000  -7.8000000  -0.0400000   2.3290000  -6.9570000
  -1.9340000   2.2630000  -7.8120000  -2.1740000   1.4940000  -7.0770000
  -2.2110000   1.8460000  -8.7800000  -2.8890000   3.4640000  -7.5800000
  -2.4090000   4.6140000  -7.7240000  -4.1510000   3.3320000  -7.2010000
  -4.6220000   2.4520000  -7.3550000  -5.0100000   4.4520000  -6.7280000
  -5.9340000   4.0330000  -6.3300000  -5.1510000   5.2150000  -7.4940000
  -4.4120000   5.0850000  -5.5360000  -3.7250000   4.5370000  -4.7220000
  -4.5520000   6.4330000  -5.4810000  -5.0980000   6.9170000  -6.1800000
  -3.8050000   7.3060000  -4.5300000  -2.7820000   6.9300000  -4.4930000
  -4.3170000   7.2550000  -3.0890000  -5.4350000   6.8620000  -2.8100000
  -3.9560000   8.7420000  -5.0970000  -3.7660000   8.7330000  -6.1700000
  -3.2610000   9.4050000  -4.5810000  -5.2090000   9.4810000  -4.7660000
  -6.2290000   9.5100000  -5.6220000  -6.1930000   8.8700000  -6.4910000
  -5.5570000  10.5050000  -3.7690000  -7.2460000  10.3200000  -5.1780000
  -8.1090000  10.4870000  -5.6750000  -6.8900000  11.0140000  -4.0180000
  -4.8600000  11.1790000  -2.7170000  -3.8350000  10.9250000  -2.4880000
  -7.4820000  12.1690000  -3.3400000  -8.3900000  12.5850000  -3.7540000
  -5.4810000  12.2330000  -2.0090000  -4.9460000  12.6490000  -1.1670000
  -6.7950000  12.7370000  -2.2930000  -7.1350000  13.6040000  -1.7460000
  -3.4990000   7.7230000  -2.1170000  -2.5720000   8.0790000  -2.2980000
  -4.0640000   8.1840000  -0.8450000  -3.3330000   8.7820000  -0.3000000
  -4.9190000   8.7540000  -1.2070000  -4.4780000   7.2720000   0.2570000
  -5.4070000   7.6530000   0.9410000  -3.8870000   6.0590000   0.3560000
  -3.1750000   5.7310000  -0.2810000  -4.1400000   5.1570000   1.5040000
  -4.7870000   5.5690000   2.2780000  -4.5830000   4.2140000   1.1830000
  -2.8820000   4.6580000   2.1970000  -1.7620000   5.1640000   1.9610000
  -2.9360000   3.6180000   3.1000000  -3.8590000   3.2580000   3.2950000
  -1.7980000   2.9490000   3.6930000  -0.9810000   2.8770000   2.9750000
  -2.0920000   1.9600000   4.0450000  -1.1780000   3.7190000   4.8460000
  -1.1310000   3.1330000   5.9290000  -0.7970000   5.0020000   4.6570000
  -1.0370000   5.4080000   3.7640000  -0.3380000   5.8970000   5.7220000
  -0.1780000   6.9140000   5.3640000   0.9360000   5.3870000   6.3920000
   1.9160000   5.9820000   6.2370000  -1.5300000   6.1050000   6.6450000
  -1.2850000   6.9360000   7.3070000  -1.6760000   5.2640000   7.3220000
  -2.9290000   6.3280000   6.0370000  -3.2490000   5.4200000   5.5250000
  -4.0440000   6.7260000   6.9780000  -3.9190000   7.6820000   7.4870000
  -4.1040000   5.9540000   7.7450000  -4.9610000   6.7920000   6.3920000
  -2.9150000   7.3690000   4.8880000  -3.0620000   8.3560000   5.3280000
  -3.5550000   7.0930000   4.0500000  -2.0300000   7.3320000   4.2520000
   0.8980000   4.3400000   7.2070000   0.0210000   3.8460000   7.2940000
   2.0160000   3.6930000   7.9140000   2.8750000   4.3190000   8.1540000
   1.5780000   3.3890000   8.8650000   2.5490000   2.4330000   7.1650000
   3.5990000   1.9150000   7.6000000   1.8280000   1.9210000   6.1940000
   0.9150000   2.3210000   6.0300000   2.3670000   0.9300000   5.1870000
   2.8370000   0.0850000   5.6900000   3.1090000   1.3490000   4.5070000
   1.2060000   0.4330000   4.3100000   0.2040000  -0.0160000   4.9300000
   1.2250000   0.5000000   2.9910000   1.8670000   1.0970000   2.4900000
   0.0890000   0.0170000   2.1780000  -0.8340000   0.2020000   2.7270000
   0.0390000   0.5640000   1.2360000   0.1490000  -1.4780000   1.7120000
   1.2210000  -1.9300000   1.3360000  -0.9650000  -2.1630000   1.7980000
  -1.7930000  -1.7290000   2.1790000  -1.1010000  -3.5670000   1.3150000
  -2.0710000  -3.8750000   1.7050000  -0.3160000  -4.1690000   1.7710000
  -1.1410000  -3.8910000  -0.1460000  -0.1390000  -3.7810000  -0.8060000
  -2.2310000  -4.4250000  -0.6730000  -3.0140000  -4.5100000  -0.0400000
  -2.2840000  -5.1730000  -1.8930000  -1.2430000  -5.4150000  -2.1040000
  -2.9470000  -4.4620000  -3.1600000  -3.9670000  -4.8230000  -3.7560000
  -3.0770000  -6.4460000  -1.5840000  -2.9930000  -7.1540000  -2.4080000
  -4.1400000  -6.2080000  -1.5630000  -2.6560000  -7.2190000  -0.2990000
  -3.1560000  -6.7490000   0.5480000  -1.5770000  -7.1900000  -0.1530000
  -3.2420000  -8.6580000  -0.3550000  -4.4400000  -8.8250000  -0.7230000
  -2.4650000  -9.6320000  -0.2570000  -2.2110000  -3.4020000  -3.5650000
  -1.3820000  -3.2410000  -3.0110000  -2.2320000  -2.8240000  -4.9110000
  -3.0650000  -2.1210000  -4.9180000  -2.4370000  -3.6510000  -5.5900000
  -0.8810000  -2.1840000  -5.3640000   0.0230000  -1.9490000  -4.5780000
  -0.8530000  -1.7610000  -6.6090000  -1.7190000  -1.7310000  -7.1290000
   0.3030000  -1.0670000  -7.2130000   0.6070000  -0.2120000  -6.6090000
   0.0200000  -0.6330000  -8.1710000   1.5980000  -1.8420000  -7.2110000
   1.6120000  -3.0810000  -7.3030000   2.6740000  -1.1240000  -7.3480000
   2.5620000  -0.1220000  -7.3950000   4.0120000  -1.5870000  -7.5690000
   4.0210000  -2.4850000  -8.1860000   4.7500000  -1.9620000  -6.2260000
   4.5540000  -1.3000000  -5.2260000   4.8250000  -0.5740000  -8.4050000
   4.8290000   0.3900000  -7.8950000   4.3500000  -0.5510000  -9.3850000
   6.3310000  -0.9030000  -8.6940000   6.6500000  -1.6460000  -9.8520000
   5.9020000  -1.8610000 -10.6020000   7.3800000  -0.5550000  -7.7870000
   7.2230000   0.0710000  -6.9210000   7.9810000  -2.2190000 -10.0070000
   8.2720000  -2.8500000 -10.8340000   8.6230000  -1.1640000  -7.8830000
   9.3530000  -1.1470000  -7.0880000   8.9440000  -1.9730000  -9.0290000
   9.9310000  -2.4110000  -9.0240000   5.5270000  -3.0540000  -6.2540000
   5.6800000  -3.4780000  -7.1580000   6.2120000  -3.6380000  -5.0540000
   7.1770000  -4.0090000  -5.3980000   6.5360000  -2.8860000  -4.3340000
   5.4590000  -4.8060000  -4.4460000   5.6710000  -5.1020000  -3.2890000
   4.5470000  -5.4260000  -5.1590000   4.3300000  -5.0770000  -6.0810000
   3.9390000  -6.6420000  -4.7370000   4.7150000  -7.1740000  -4.1850000
   3.5030000  -7.2430000  -5.5350000   2.7690000  -6.4100000  -3.8060000
   1.6660000  -6.0620000  -4.2960000   3.0110000  -6.6950000  -2.5050000
   3.9650000  -6.8380000  -2.2060000   2.1480000  -6.3740000  -1.3120000
   1.1320000  -6.0350000  -1.5150000   2.7790000  -5.2230000  -0.4260000
   2.3590000  -5.1120000   0.7960000   1.9890000  -7.6310000  -0.4780000
   1.3980000  -7.3540000   0.3950000   2.9870000  -7.9300000  -0.1590000
   1.2240000  -8.7990000  -1.2350000   1.9070000  -9.1860000  -1.9910000
   0.2540000  -8.5870000  -1.6850000   1.0370000  -9.9620000  -0.2280000
   0.4290000  -9.6060000   0.6040000   1.9690000 -10.3070000   0.2200000
   0.4770000 -11.1460000  -0.9000000   0.2210000 -11.9300000  -0.1880000
   1.2010000 -11.6090000  -1.5700000  -0.6830000 -10.8450000  -1.7560000
  -0.4030000 -10.3610000  -2.5970000  -0.9870000 -11.7620000  -2.0520000
  -1.3840000 -10.2470000  -1.3440000   3.7530000  -4.4240000  -0.9570000
   4.1100000  -4.7150000  -1.8550000   4.2760000  -3.1910000  -0.3430000
   3.3980000  -2.5500000  -0.4170000   4.9490000  -2.6300000  -0.9920000
   4.8420000  -3.3850000   1.1680000   5.4940000  -4.3800000   1.5060000
   4.4770000  -2.4710000   2.0510000   3.8020000  -1.8740000   1.5930000
   4.6280000  -2.4430000   3.5280000   5.4400000  -3.1080000   3.8220000
   3.4110000  -2.9820000   4.4010000   3.6150000  -3.3570000   5.5250000
   5.0930000  -1.0410000   3.9780000   5.1650000  -0.9350000   5.0600000
   4.3340000  -0.3190000   3.6770000   6.4050000  -0.5050000   3.3910000
   7.1950000  -1.1710000   2.4970000   7.0320000  -2.1220000   2.0110000
   7.0380000   0.7350000   3.6080000   8.3270000  -0.3900000   2.1900000
   8.9180000  -0.5540000   1.3880000   8.2600000   0.8080000   2.8980000
   6.5960000   1.8820000   4.3240000   5.6260000   1.8530000   4.7990000
   9.1070000   1.9270000   3.1550000  10.1380000   1.8980000   2.8340000
   7.3960000   2.9840000   4.3680000   7.0680000   3.7400000   5.0660000
   8.7220000   2.9960000   3.9760000   9.3170000   3.8810000   4.1460000
   2.1700000  -2.9910000   3.8820000   2.0250000  -2.6430000   2.9450000
   0.9500000  -3.4030000   4.5890000   0.0670000  -2.9230000   4.1660000
   1.0120000  -2.9660000   5.5850000   0.7600000  -4.8610000   4.5750000
   0.2770000  -5.3600000   5.5970000   1.2260000  -5.5920000   3.5710000
   1.5750000  -5.1420000   2.7370000   1.1650000  -7.0530000   3.5560000
   1.5000000  -7.4000000   4.5340000   1.8810000  -7.4750000   2.8510000
  -0.2090000  -7.6760000   3.3400000  -1.0640000  -7.0480000   2.6600000
  -0.4320000  -8.9890000   3.6620000   0.3570000  -9.4660000   4.0720000
  -1.6950000  -9.7890000   3.6200000  -1.9810000  -9.8200000   2.5690000
  -2.8920000  -9.1340000   4.3090000  -4.0510000  -9.3510000   3.8750000
  -1.4970000 -11.2620000   4.1300000  -2.3860000 -11.8890000   4.0520000
  -1.3930000 -11.2450000   5.2140000  -0.3190000 -12.1670000   3.5750000
   0.6390000 -11.6600000   2.9590000  -0.3580000 -13.3790000   3.6900000
  -2.7400000  -8.3040000   5.2980000  -1.8430000  -8.2460000   5.7580000
  -3.8230000  -7.6710000   6.0020000  -3.4220000  -7.1290000   6.8590000
  -4.5160000  -8.4530000   6.3110000  -4.6580000  -6.6150000   5.2500000
  -5.6470000  -6.2230000   5.9210000  -4.2940000  -6.1480000   3.9990000
  -3.5710000  -6.6340000   3.4890000  -4.9590000  -4.9520000   3.4070000
  -5.9570000  -4.8620000   3.8370000  -5.2280000  -4.8240000   1.8710000
  -4.6010000  -4.0610000   1.1300000  -4.2830000  -3.6670000   3.8940000
  -5.0330000  -2.9290000   3.6110000  -3.2500000  -3.6340000   3.5490000
  -4.0310000  -3.5400000   5.3520000  -5.0540000  -2.9000000   6.1380000
  -5.9850000  -2.5600000   5.7090000  -2.8470000  -3.8330000   5.9970000
  -2.0220000  -4.2790000   5.4610000  -4.8580000  -2.6650000   7.5300000
  -5.6860000  -2.1700000   8.0160000  -2.6710000  -3.7760000   7.4070000
  -1.7550000  -4.0940000   7.8820000  -3.7030000  -3.2130000   8.2130000
  -3.6420000  -3.0530000   9.5490000  -4.2880000  -2.4170000   9.8630000
  -6.1900000  -5.5610000   1.4900000   2.1960000   0.3100000   0.9490000
   3.0430000   1.5520000   0.9460000   2.2400000   2.7800000   0.6050000
   0.8130000   2.4550000   0.3020000  -0.0990000   3.6600000   0.2760000
   0.3230000   4.6240000   1.3750000  -0.4260000   4.4870000   2.6560000
  -1.4240000   3.2250000   0.4990000  -2.2910000   3.1510000  -0.5170000
  -3.3170000   2.5320000  -0.4280000  -1.8610000   3.8910000  -1.7280000
  -2.7420000   4.5850000  -2.4540000  -2.3960000   5.3250000  -3.6900000
  -1.1240000   5.3540000  -4.1990000  -0.8430000   6.0610000  -5.3640000
  -1.8350000   6.7420000  -6.0200000  -1.6250000   7.4470000  -7.1690000
  -0.6000000   7.0560000  -8.0620000  -3.1110000   6.7180000  -5.5130000
  -3.3930000   6.0140000  -4.3490000   1.9905816   0.0087844   1.9868210
   1.2468077   0.5122470   0.4311871   2.7308506  -0.4998177   0.4311871
   3.4856498   1.6827400   1.9444830   3.8221013   1.4308800   0.1789726
   2.2719928   3.4726407   1.4589469   2.6815971   3.2332676  -0.2947447
   0.7707588   1.9677328  -0.6832849   0.4558417   1.8025705   1.1124157
  -0.0367705   4.1709935  -0.6961179   1.3899024   4.4567845   1.5841847
   0.1043641   5.6340037   0.9980506   0.2666550   4.6136939   3.5010903
  -1.2103639   5.2565773   2.7062400  -0.8871656   3.4896023   2.7062400
  -0.8041290   3.8682403  -2.0321475  -3.7876855   4.6084086  -2.1134212
  -0.3176534   4.8133529  -3.6817903   0.1826727   6.0734111  -5.7612926
   0.2774036   6.7213026  -7.4891644  -0.9602754   6.2321589  -8.6956304
  -0.3200556   7.9104844  -8.6956304  -3.9153114   7.2598953  -6.0320690
  -4.4181223   6.0059293  -3.9501779
