
  371  0.0000000e+00
  -2.9090000  -1.6720000  -6.9370000  -3.7800000  -1.1750000  -7.0490000
  -2.8630000  -2.4360000  -7.5960000  -3.0640000  -2.0650000  -6.0200000
  -1.7120000  -0.7830000  -6.8640000  -0.8710000  -1.4770000  -6.8500000
  -1.6770000   0.0780000  -5.4850000  -2.6380000  -0.1170000  -4.7510000
  -1.7460000   0.1280000  -8.1190000  -2.7420000   0.5710000  -8.1040000
  -1.5290000  -0.4860000  -8.9940000  -0.9050000   1.3930000  -8.2460000
   0.4840000   1.1690000  -8.4380000   0.9290000   0.2110000  -8.6650000
  -1.4440000   2.6970000  -8.1560000  -2.4720000   2.9130000  -7.9040000
   1.3130000   2.2350000  -8.5580000   2.3550000   2.1640000  -8.8310000
  -0.5470000   3.7910000  -8.2610000  -1.0450000   4.7040000  -7.9670000
   0.8400000   3.5440000  -8.3360000   1.7700000   4.5390000  -8.3500000
   2.4740000   4.3640000  -7.7210000  -0.7510000   0.9230000  -5.2620000
  -0.1530000   1.1690000  -6.0380000  -0.8280000   1.8370000  -4.1270000
  -0.3920000   1.4080000  -3.2250000  -1.8420000   2.0550000  -3.7900000
  -0.1640000   3.2250000  -4.3190000   1.0230000   3.3290000  -4.7300000
  -0.8830000   4.2460000  -3.9010000  -1.8400000   4.1080000  -3.6080000
  -0.3180000   5.6560000  -3.7250000   0.1690000   5.9800000  -4.6450000
   0.6380000   5.6040000  -2.5440000   0.4550000   4.9250000  -1.5350000
  -1.4140000   6.5900000  -3.3310000  -1.1250000   7.6090000  -3.0760000
  -1.8730000   6.1490000  -2.4460000  -2.5510000   6.6870000  -4.3280000
  -2.7510000   7.7630000  -4.8450000  -3.2070000   5.6930000  -4.5690000
   1.6920000   6.4820000  -2.5540000   1.7460000   7.1590000  -3.3020000
   2.7920000   6.4440000  -1.5070000   2.5420000   5.7350000  -0.7180000
   2.8170000   7.4100000  -1.0030000   4.1960000   6.1680000  -1.9990000
   4.8340000   5.0950000  -1.7260000   4.8170000   7.2370000  -2.6230000
   4.2930000   8.0880000  -2.7700000   6.1120000   7.1780000  -3.3400000
   6.9370000   6.9060000  -2.6810000   6.2740000   8.1430000  -3.8190000
   6.1600000   6.0900000  -4.5130000   5.1600000   5.9700000  -5.2720000
   7.1950000   5.2350000  -4.5110000   7.9000000   5.3660000  -3.8000000
   7.3390000   4.1510000  -5.5500000   6.4520000   4.1760000  -6.1830000
   7.3460000   2.7940000  -4.9420000   8.2330000   2.4860000  -4.2040000
   8.6180000   4.4340000  -6.4000000   9.3160000   4.9170000  -5.7160000
   9.0610000   3.4890000  -6.7150000   8.2990000   5.3910000  -7.4930000
   8.1340000   6.4030000  -7.1220000   7.4160000   5.0700000  -8.0440000
   9.4170000   5.5230000  -8.5710000   9.5050000   4.6320000  -9.1910000
   9.1570000   6.3710000  -9.2050000  10.7930000   5.7620000  -8.1030000
  10.9530000   6.2080000  -7.2110000  11.9290000   5.8210000  -8.8250000
  12.0520000   5.6070000 -10.0850000  12.8840000   5.3190000 -10.5790000
  11.1390000   5.3850000 -10.4580000  12.9850000   6.2340000  -8.2250000
  12.9870000   6.4580000  -7.2400000  13.8370000   6.3850000  -8.7470000
   6.3790000   1.9470000  -5.2490000   5.6880000   2.2930000  -5.8990000
   6.1430000   0.6510000  -4.5700000   6.5480000   0.5880000  -3.5590000
   6.5320000  -0.1550000  -5.1930000   4.6790000   0.5580000  -4.4760000
   3.8250000   1.4540000  -4.8580000   4.2190000  -0.6130000  -4.1820000
   4.8730000  -1.3820000  -4.2080000   2.8600000  -0.9170000  -3.9390000
   2.3500000  -0.5660000  -4.8360000   2.0250000  -0.2700000  -2.7390000
   1.3140000  -0.9450000  -2.0090000   2.8070000  -2.4910000  -3.8430000
   1.7820000  -2.8540000  -3.7640000   3.1500000  -2.8090000  -2.8580000
   3.5610000  -3.2730000  -4.9080000   3.6600000  -2.7740000  -6.2290000
   3.1440000  -1.8500000  -6.4410000   4.1600000  -4.5930000  -4.7100000
   4.1390000  -5.0620000  -3.7380000   4.4820000  -3.3260000  -7.1970000
   4.4860000  -2.9050000  -8.1910000   5.0170000  -5.1070000  -5.6760000
   5.5500000  -6.0340000  -5.5230000   5.1200000  -4.5120000  -6.9370000
   5.7330000  -5.0130000  -7.6710000   2.1100000   1.0410000  -2.4830000
   2.6210000   1.5350000  -3.1990000   1.4280000   1.8520000  -1.4230000
   1.0930000   2.7390000  -1.9610000   0.5150000   1.3940000  -1.0400000
   2.3100000   2.2550000  -0.2850000   3.2780000   1.5720000  -0.0290000
   1.8660000   3.3170000   0.3710000   1.1540000   3.9050000  -0.0370000
   2.5510000   3.7580000   1.5770000   2.3470000   4.8270000   1.6210000
   3.6280000   3.6060000   1.5020000   2.1230000   3.1250000   2.8810000
   1.7240000   1.9760000   2.9460000   2.1570000   3.9060000   3.9540000
   2.4420000   4.8570000   3.7670000   1.9970000   3.4840000   5.3630000
   2.4960000   2.5160000   5.3150000   0.4740000   3.2910000   5.8450000
   0.3080000   3.0870000   7.0180000   2.7060000   4.3970000   6.3430000
   2.3270000   5.4010000   6.1490000   2.4750000   3.9760000   7.3210000
   4.1720000   4.4250000   6.2970000   4.6560000   3.4540000   6.3940000
   4.5050000   4.8940000   5.3710000   4.7580000   5.2880000   7.4420000
   5.8260000   5.0790000   7.5000000   4.3450000   5.0790000   8.4290000
   4.3980000   6.8000000   7.1190000   4.2940000   6.8730000   6.0360000
   3.4530000   6.9200000   7.6480000   5.4000000   7.7600000   7.5420000
   5.6370000   7.6030000   8.5110000   4.9100000   8.6420000   7.6010000
   6.1500000   7.8550000   6.8720000  -0.5130000   3.4570000   4.9400000
  -0.2840000   3.7430000   3.9980000  -1.9720000   3.2480000   5.0250000
  -2.3500000   3.9900000   4.3220000  -2.3340000   3.4510000   6.0330000
  -2.4970000   1.9210000   4.5030000  -1.8470000   0.9850000   4.1710000
  -3.8030000   1.8430000   4.3760000  -4.3450000   2.5700000   4.8210000
  -4.5140000   0.7270000   3.7260000  -5.2440000   1.1100000   3.0140000
  -3.7510000   0.1160000   3.2440000  -5.4340000  -0.1390000   4.5970000
  -5.5230000  -0.0170000   5.8550000  -6.0850000  -1.0120000   3.8330000
  -6.2170000  -0.8550000   2.8440000  -7.0490000  -2.0500000   4.2700000
  -7.7200000  -1.6420000   5.0260000  -6.5180000  -2.8800000   4.7360000
  -7.8160000  -2.6010000   3.0850000  -7.5340000  -2.2830000   1.9640000
  -8.6720000  -3.5090000   3.3570000  -8.9480000  -3.6180000   4.3230000
  -9.2810000  -4.4950000   2.4040000 -10.0290000  -4.1480000   1.6920000
  -8.4830000  -4.9450000   1.8140000 -10.0460000  -5.4970000   3.2020000
 -10.4660000  -5.2640000   4.2800000 -10.1450000  -6.6790000   2.6360000
  -9.7000000  -6.7370000   1.7310000 -10.8250000  -7.8530000   3.3850000
 -11.6970000  -7.4800000   3.9230000  -9.8710000  -8.5090000   4.3600000
  -9.4900000  -9.6410000   4.2250000 -11.3350000  -8.7600000   2.3160000
 -11.7480000  -9.6320000   2.8230000 -10.5070000  -9.1540000   1.7280000
 -12.4390000  -8.0620000   1.4810000 -12.4500000  -8.7860000   0.6650000
 -12.1250000  -7.1540000   0.9660000 -13.7760000  -8.0090000   2.2390000
 -14.0900000  -9.0880000   2.7510000 -14.5500000  -7.0370000   2.1860000
  -9.3640000  -7.7170000   5.3010000  -9.6760000  -6.7570000   5.2840000
  -8.2030000  -8.0300000   6.1700000  -8.5170000  -8.8260000   6.8460000
  -7.4800000  -8.3770000   5.4320000  -7.5910000  -6.9370000   7.0270000
  -8.0900000  -5.8420000   7.1400000  -6.4900000  -7.2290000   7.6940000
  -6.1490000  -8.1690000   7.5570000  -5.5420000  -6.3290000   8.4320000
  -5.9670000  -5.3260000   8.4700000  -4.2710000  -6.2450000   7.6420000
  -3.6590000  -7.2830000   7.3910000  -5.3970000  -6.7620000   9.9270000
  -5.1650000  -7.8230000  10.0250000  -6.7050000  -6.6060000  10.7100000
  -7.4400000  -7.2380000  10.2120000  -7.0940000  -5.5890000  10.6520000
  -4.2570000  -5.9750000  10.5750000  -4.3410000  -4.9170000  10.3260000
  -4.0810000  -6.0280000  11.6490000  -3.3030000  -6.2950000  10.1580000
  -6.6490000  -6.8150000  12.1640000  -7.6800000  -7.0680000  12.4110000
  -5.9630000  -7.5940000  12.4960000  -6.4020000  -5.8900000  12.6840000
  -3.8170000  -5.0490000   7.3590000  -4.2910000  -4.1820000   7.5670000
  -2.7660000  -4.7920000   6.3120000  -2.8070000  -5.6410000   5.6300000
  -1.7530000  -4.7370000   6.7100000  -3.0660000  -3.5170000   5.4900000
  -4.0290000  -2.8280000   5.8090000  -2.1370000  -3.2320000   4.5800000
  -1.4650000  -3.9490000   4.3490000  -1.9510000  -1.9770000   3.8240000
  -1.8280000  -1.1530000   4.5270000  -2.7410000  -1.6620000   3.1430000
  -0.6740000  -2.0090000   2.9310000  -0.2360000  -3.1280000   2.5610000
  -0.2540000  -0.8120000   2.4300000  -0.6910000   0.0230000   2.7930000
   0.7960000  -0.7160000   1.4010000   0.8820000   0.3300000   1.1080000
   0.3920000  -1.2980000   0.5730000   2.1650000  -1.2220000   1.6730000
   2.5790000  -1.1880000   2.8460000   2.8200000  -1.6830000   0.6040000
   2.3310000  -1.5580000  -0.2710000   4.0610000  -2.3830000   0.5470000
   4.4710000  -2.4010000   1.5570000   5.1090000  -1.5580000  -0.2800000
   4.7830000  -1.0950000  -1.3630000   3.9960000  -3.8160000  -0.0340000
   3.4730000  -3.8260000  -0.9900000   5.0370000  -4.1320000  -0.1090000
   3.2190000  -4.8400000   0.8910000   2.2270000  -4.4010000   0.9940000
   3.8870000  -5.1900000   2.2300000   3.4540000  -6.1250000   2.5870000
   3.6040000  -4.4600000   2.9880000   4.9570000  -5.3190000   2.0650000
   3.2210000  -6.1810000   0.1370000   2.7640000  -6.1690000  -0.8520000
   4.2420000  -6.5190000  -0.0400000   2.8120000  -6.9560000   0.7860000
   6.3260000  -1.4880000   0.2060000   6.5440000  -2.0100000   1.0420000
   7.4090000  -0.5660000  -0.2470000   8.3710000  -0.8510000   0.1780000
   7.4510000  -0.7610000  -1.3190000   7.1650000   0.9310000   0.0110000
   6.7140000   1.3960000   1.0210000   7.4320000   1.7920000  -0.9870000
   7.8440000   1.3990000  -1.8210000   7.0370000   3.2230000  -1.0290000
   7.4170000   3.7450000  -1.9070000   5.9510000   3.2210000  -0.9430000
   7.6900000   4.0480000   0.0870000   8.7210000   3.6920000   0.7310000
   7.0980000   5.2910000   0.1850000   6.2790000   5.4170000  -0.3930000
   7.4780000   6.4730000   1.1130000   7.6450000   6.0760000   2.1140000
   6.1570000   7.2520000   1.3130000   5.4980000   7.5950000   0.3190000
   8.6490000   7.3730000   0.6440000   8.3210000   7.8870000  -0.2600000
   9.5740000   6.8250000   0.4580000   8.9840000   8.3240000   1.6870000
   9.8550000   8.2010000   2.0710000   5.7820000   7.7160000   2.5860000
   6.3280000   7.4240000   3.3840000   4.6000000   8.5820000   2.8210000
   4.3780000   9.2490000   1.9880000   4.8200000   9.1640000   3.7150000
   3.3420000   7.7150000   3.1890000   3.3130000   6.4940000   3.1240000
   2.1690000   8.3690000   3.5510000   2.1900000   9.3740000   3.4520000
   0.8710000   7.6580000   3.7500000   1.0840000   6.8000000   4.3870000
   0.1570000   7.2910000   2.4180000   0.5470000   7.6960000   1.3250000
  -0.0350000   8.5790000   4.6210000  -0.2810000   9.4650000   4.0350000
   0.5800000   8.9480000   5.4430000  -1.3420000   7.9240000   5.1770000
  -1.5670000   6.6930000   5.1300000  -2.1990000   8.6590000   5.7160000
  -0.9320000   6.5350000   2.4890000  -1.3310000   6.3220000   3.3910000
  -1.5150000   5.9260000   1.2790000  -1.0400000   6.2630000   0.3580000
  -2.5690000   6.1880000   1.1880000  -1.4130000   4.3950000   1.2800000
  -0.7690000   3.8910000   2.1610000  -1.9780000   3.6980000   0.3270000
  -2.7790000   4.0820000  -0.1530000  -1.9650000   2.2320000   0.2860000
  -1.3940000   1.8170000   1.1170000  -1.4980000   1.8540000  -0.6240000
  -3.3650000   1.5970000   0.3880000  -4.3330000   2.3150000   0.6750000
  -3.5300000   0.3410000   0.0390000  -2.8020000  -0.1940000  -0.4120000
  -4.7510000  -0.4640000   0.2630000  -4.5160000  -1.1340000   1.0900000
  -5.5070000   0.2430000   0.6040000  -5.2830000  -1.1930000  -0.9580000
  -6.0840000  -0.6420000  -1.6780000  -4.8540000  -2.4870000  -1.1440000
  -4.0900000  -2.8080000  -0.5660000  -5.4120000  -3.3870000  -2.0870000
  -6.2040000  -2.8530000  -2.6120000  -6.2430000  -4.5400000  -1.4860000
  -7.4800000  -4.7170000  -1.7950000  -4.3400000  -3.7990000  -3.1440000
  -3.9250000  -2.9320000  -3.6580000  -3.5460000  -4.3310000  -2.6210000
  -4.7360000  -4.7700000  -4.1830000  -4.7190000  -6.1120000  -3.9900000
  -4.2750000  -6.6000000  -3.1350000  -5.0750000  -4.5790000  -5.5630000
  -4.8680000  -6.7440000  -5.1990000  -4.5800000  -7.6950000  -5.3810000
  -5.0850000  -5.8530000  -6.2200000  -5.3990000  -3.4580000  -6.2860000
  -5.3450000  -2.5180000  -5.7580000  -5.3870000  -5.9720000  -7.6000000
  -5.5190000  -6.9150000  -8.1090000  -5.6640000  -3.5470000  -7.6460000
  -5.8450000  -2.6580000  -8.2320000  -5.5960000  -4.7450000  -8.3210000
  -5.9430000  -4.7670000  -9.3430000  -5.6560000  -5.4430000  -0.8660000
   1.6790000  -5.2220000  -3.3290000   2.3660000  -5.8980000  -2.2920000
   1.5960000  -6.1050000  -1.1780000   1.4020000  -7.3920000  -0.7630000
   0.6990000  -7.6380000   0.3850000   0.1750000  -6.6090000   1.1210000
  -0.5280000  -6.8750000   2.3990000  -0.0510000  -6.4500000   3.4680000
  -1.7990000  -7.6460000   2.4250000  -2.1100000  -8.3760000   3.5790000
  -3.2990000  -9.1050000   3.6180000  -4.1860000  -9.0590000   2.5230000
  -3.8650000  -8.3090000   1.4210000  -2.6810000  -7.5850000   1.3720000
   0.3760000  -5.2530000   0.7210000  -0.1200000  -4.2660000   1.4590000
   1.0840000  -5.0320000  -0.4540000   0.9596032  -4.5141220  -2.8915334
   2.4017443  -4.6731308  -3.9505974   1.1418673  -5.9535088  -3.9505974
   1.8097284  -8.2281926  -1.3499748   0.5530133  -8.6752814   0.7207606
  -1.4272870  -8.3746549   4.4414970  -3.5437405  -9.7140250   4.5007177
  -5.1306133  -9.6218736   2.5526496  -4.5544698  -8.2804137   0.5643704
  -2.4495072  -6.9646977   0.4935718   0.0177990  -3.3249628   1.1841174
   1.2406152  -4.0043491  -0.8137294
