
  421  0.0000000e+00
  -8.0740000   0.0720000   5.9940000  -7.8020000  -0.8340000   5.6390000
  -8.0350000   0.1730000   6.9980000  -8.9770000   0.3140000   5.6130000
  -7.0390000   1.0300000   5.4540000  -7.1730000   0.9460000   4.3760000
  -5.6470000   0.6020000   5.7030000  -4.8950000   0.5070000   4.8040000
  -7.2740000   2.4990000   5.7650000  -7.2710000   2.6920000   6.8380000
  -6.4640000   3.0510000   5.2890000  -8.6020000   2.9640000   5.1530000
  -9.6930000   3.2140000   5.9590000  -9.7350000   2.8940000   6.9900000
  -8.6320000   3.3850000   3.8490000  -7.7730000   3.4180000   3.1950000
 -10.8860000   3.7990000   5.4530000 -11.6420000   4.0170000   6.1930000
  -9.7760000   4.0710000   3.3540000  -9.7400000   4.4650000   2.3490000
 -10.9690000   4.2190000   4.1220000 -12.0460000   4.9350000   3.6830000
 -12.8930000   4.6930000   4.0640000  -5.2080000   0.4270000   6.9610000
  -5.7150000   0.7380000   7.7770000  -3.8460000   0.0320000   7.3800000
  -3.9680000  -0.9560000   7.8250000  -3.1250000   0.0060000   6.5640000
  -3.0970000   1.0080000   8.2560000  -1.8880000   0.9560000   8.4430000
  -3.7310000   2.0250000   8.8360000  -4.6970000   2.2180000   8.6120000
  -3.0920000   3.1830000   9.5150000  -2.6090000   2.8950000  10.4480000
  -3.8090000   3.9710000   9.7430000  -2.0040000   3.8110000   8.6270000
  -2.2210000   4.1520000   7.4400000  -0.8470000   4.1280000   9.2100000
  -0.7220000   3.6470000  10.0900000   0.2640000   4.7390000   8.4780000
  -0.1480000   5.6260000   7.9960000   0.8370000   3.8540000   7.3610000
   1.7040000   4.3210000   6.6380000   1.2400000   5.3250000   9.5360000
   1.9520000   5.9740000   9.0260000   0.7430000   5.9530000  10.2770000
   2.0160000   4.2640000  10.3690000   1.8000000   3.0470000  10.2100000
   2.9420000   4.6500000  11.1400000   0.4630000   2.6020000   7.1820000
  -0.0950000   2.1650000   7.9020000   0.9210000   1.8310000   6.0080000
   2.0070000   1.9150000   5.9740000   0.6180000   0.7970000   6.1740000
   0.3280000   2.3760000   4.7130000   0.9000000   2.1480000   3.6340000
  -0.9190000   2.9290000   4.7760000  -1.2380000   3.1860000   5.6990000
  -1.8030000   3.1890000   3.5960000  -1.8920000   2.3510000   2.9050000
  -1.2820000   4.2530000   2.7210000  -1.3170000   4.1090000   1.4840000
  -3.2010000   3.6410000   4.1770000  -3.5780000   2.9210000   4.9040000
  -3.0730000   4.6090000   4.6630000  -4.2130000   3.7620000   3.1310000
  -4.4440000   2.7370000   2.1800000  -4.0860000   1.7270000   2.3170000
  -4.8540000   5.0750000   3.0490000  -4.8470000   5.8130000   3.8380000
  -5.2920000   3.0570000   1.0820000  -5.5250000   2.3270000   0.3200000
  -5.7500000   5.2540000   1.9800000  -6.2900000   6.1730000   1.8070000
  -5.9650000   4.2520000   1.0420000  -6.5950000   4.4530000   0.1880000
  -0.6940000   5.3370000   3.2840000  -0.7050000   5.4320000   4.2900000
  -0.3300000   6.5190000   2.4880000  -0.1220000   7.2900000   3.2290000
  -1.1090000   6.8730000   1.8120000   1.0260000   6.2770000   1.8480000
   1.1610000   6.2380000   0.6570000   2.0270000   6.1130000   2.7210000
   1.7660000   6.1290000   3.6960000   3.3430000   5.7760000   2.3210000
   3.6780000   6.6440000   1.7530000   3.5160000   4.4480000   1.4890000
   3.9210000   4.5790000   0.3360000   4.2000000   5.6740000   3.6030000
   3.9590000   6.5210000   4.2460000   4.1170000   4.6960000   4.0770000
   5.7170000   5.7820000   3.3510000   6.0420000   5.0040000   2.6600000
   5.9450000   6.7410000   2.8850000   6.5260000   5.7910000   4.6830000
   6.3850000   6.7440000   5.1930000   6.3760000   5.0090000   5.4270000
   7.9810000   5.8090000   4.3420000   7.9900000   6.4090000   3.4330000
   8.6270000   6.3730000   5.0150000   8.6510000   4.5130000   4.2110000
   8.1020000   3.7890000   3.7690000   8.8000000   4.1450000   5.1400000
   9.5260000   4.5680000   3.7100000   3.0820000   3.3110000   2.0500000
   2.7090000   3.4300000   2.9810000   3.1110000   2.0670000   1.2650000
   4.0550000   1.9760000   0.7270000   2.9870000   1.2450000   1.9700000
   2.0810000   1.9710000   0.1900000   2.3810000   1.3500000  -0.7980000
   0.8880000   2.5110000   0.2510000   0.4770000   2.8190000   1.1210000
  -0.0090000   2.5930000  -0.9180000  -0.2020000   1.5690000  -1.2350000
  -1.0050000   2.7980000  -0.5260000   0.3280000   3.5030000  -2.0220000
   0.2020000   3.0860000  -3.1470000   0.9240000   4.6890000  -1.7460000
   1.2720000   4.8450000  -0.8110000   0.9860000   5.9150000  -2.6220000
   0.0720000   6.4990000  -2.7340000   1.7250000   6.6370000  -2.2740000
   1.5510000   5.5810000  -3.9910000   2.7250000   5.1360000  -4.1630000
   0.8500000   5.8600000  -5.0540000  -0.1190000   6.1160000  -4.9270000
   1.1860000   5.5670000  -6.4670000   1.5400000   4.5370000  -6.4220000
   2.3960000   6.4130000  -7.0760000   2.5780000   6.4690000  -8.2890000
  -0.1030000   5.6190000  -7.3040000   0.0770000   5.2340000  -8.3080000
  -0.3610000   6.6630000  -7.4810000  -1.2570000   4.8180000  -6.7150000
  -1.4690000   4.9650000  -5.6560000  -2.5940000   5.2090000  -7.4740000
  -2.5600000   5.0900000  -8.5570000  -3.3980000   4.6320000  -7.0180000
  -2.8630000   6.1690000  -7.0340000  -1.0450000   3.3530000  -6.8190000
  -1.9180000   2.7980000  -6.4770000  -0.2400000   2.9300000  -6.2180000
  -0.8490000   3.0800000  -7.8560000   3.1440000   7.0230000  -6.1910000
   2.9480000   6.7990000  -5.2260000   4.4790000   7.5010000  -6.4960000
   4.4430000   8.2320000  -7.3040000   4.9910000   8.0320000  -5.6930000
   5.4280000   6.3890000  -6.8280000   6.4140000   6.7340000  -7.4840000
   5.2110000   5.1010000  -6.5340000   4.3420000   4.8470000  -6.0880000
   6.2620000   4.1190000  -6.6650000   5.7880000   3.1580000  -6.8650000
   7.0170000   4.4340000  -7.3860000   6.9470000   3.8970000  -5.3160000
   6.6760000   4.5620000  -4.2870000   7.8400000   2.9390000  -5.2710000
   8.0330000   2.4080000  -6.1080000   8.5770000   2.6030000  -4.0960000
   7.8760000   2.5990000  -3.2620000   9.4440000   3.2210000  -3.8610000
   9.1110000   1.1470000  -4.1720000   8.6660000   0.4520000  -5.1160000
   9.9910000   0.7570000  -3.1690000  10.3250000   1.4740000  -2.5410000
  10.4650000  -0.6140000  -3.0030000  10.7760000  -0.9720000  -3.9850000
   9.3510000  -1.5060000  -2.5200000   8.7970000  -1.1780000  -1.4820000
  11.6780000  -0.6390000  -2.0950000  11.4590000  -0.1470000  -1.1480000
  12.3910000  -0.0820000  -2.7020000  12.4190000  -1.9450000  -1.9960000
  11.7680000  -2.7890000  -1.7660000  12.9940000  -2.2190000  -2.8800000
  13.4850000  -1.8710000  -0.8940000  14.0600000  -0.9500000  -0.9900000
  14.1550000  -2.7310000  -0.9140000  12.6860000  -1.8530000   0.4290000
  11.7060000  -2.2660000   0.1910000  12.4780000  -0.8460000   0.7900000
  13.2920000  -2.6830000   1.5350000  14.1530000  -2.2980000   1.8970000
  12.6150000  -2.7620000   2.2800000  13.5310000  -3.6150000   1.2270000
   9.0330000  -2.6610000  -3.0850000   9.5400000  -2.9020000  -3.9250000
   7.7930000  -3.3470000  -2.8140000   8.0590000  -4.4030000  -2.7630000
   7.2840000  -3.0830000  -1.8860000   6.8530000  -3.2040000  -3.9590000
   7.1180000  -2.7470000  -5.0690000   5.6240000  -3.7330000  -3.7790000
   5.4530000  -4.1900000  -2.8950000   4.6480000  -3.7810000  -4.9000000
   5.1540000  -4.1590000  -5.7880000   4.4330000  -2.7250000  -5.0640000
   3.4210000  -4.6840000  -4.6620000   3.4670000  -5.6910000  -3.8590000
   2.3250000  -4.4720000  -5.4140000   2.2130000  -3.6280000  -5.9580000
   1.2940000  -5.5080000  -5.4600000   1.8530000  -6.4380000  -5.5670000
   0.7090000  -5.4250000  -6.3760000   0.4200000  -5.6790000  -4.2730000
   0.1430000  -6.7930000  -3.8700000   0.0400000  -4.5170000  -3.7010000
   0.3200000  -3.6330000  -4.0990000  -0.9330000  -4.4260000  -2.5810000
  -0.8150000  -5.2120000  -1.8350000  -0.7300000  -3.5380000  -1.9810000
  -2.4200000  -4.3930000  -3.0490000  -2.7770000  -4.6270000  -4.1940000
  -3.2950000  -4.1980000  -1.9970000  -2.8700000  -4.0040000  -1.1020000
  -4.7050000  -4.2820000  -2.1610000  -4.9560000  -5.2620000  -2.5660000
  -5.0950000  -3.2890000  -3.1800000  -4.5190000  -2.1720000  -3.3500000
  -5.4390000  -4.1440000  -0.7850000  -5.4660000  -3.0580000  -0.6900000
  -4.9420000  -4.6940000   0.0140000  -6.9320000  -4.6190000  -0.7720000
  -7.5230000  -3.8300000  -1.2380000  -7.1560000  -6.0640000  -1.3690000
  -7.2020000  -6.0410000  -2.4580000  -6.5610000  -6.8400000  -0.8890000
  -8.1640000  -6.3870000  -1.1070000  -7.2560000  -4.6740000   0.6550000
  -7.1630000  -3.6930000   1.1190000  -8.2630000  -5.0780000   0.7580000
  -6.6120000  -5.4550000   1.0580000  -5.9860000  -3.8030000  -4.0960000
  -6.3290000  -4.7520000  -4.0650000  -6.4530000  -2.9770000  -5.1910000
  -7.0490000  -3.6350000  -5.8220000  -7.1410000  -2.2340000  -4.7870000
  -5.3270000  -2.4930000  -6.1490000  -5.4550000  -1.3610000  -6.6840000
  -4.2420000  -3.2030000  -6.3020000  -4.0690000  -3.9840000  -5.6840000
  -3.1920000  -2.8230000  -7.2210000  -3.5810000  -2.5840000  -8.2120000
  -2.5380000  -3.6860000  -7.3440000  -2.3760000  -1.5610000  -6.7850000
  -1.7750000  -1.0260000  -7.6750000  -2.4140000  -1.1110000  -5.5210000
  -2.8450000  -1.6990000  -4.8220000  -1.7080000   0.0860000  -5.1430000
  -1.6580000   0.7650000  -5.9940000  -0.3120000  -0.4220000  -4.7540000
  -0.2330000  -1.5510000  -4.2480000  -2.4150000   0.8460000  -4.0200000
  -2.9260000   0.2570000  -3.2590000  -1.6650000   1.3970000  -3.4530000
  -3.5170000   1.7910000  -4.4880000  -4.3700000   1.5320000  -5.5440000
  -4.3550000   0.6100000  -6.1070000  -3.8220000   3.1960000  -4.0260000
  -5.2210000   2.6340000  -5.6840000  -5.9280000   2.6570000  -6.4060000
  -4.9270000   3.6720000  -4.7920000  -3.2680000   4.0420000  -3.1110000
  -2.4850000   3.6010000  -2.5120000  -5.4310000   4.9390000  -4.5890000
  -6.2250000   5.2670000  -5.2440000  -3.8990000   5.2710000  -2.7860000
  -3.5060000   5.9330000  -2.0280000  -4.9010000   5.7650000  -3.6110000
  -5.2050000   6.7830000  -3.4150000   0.7040000   0.3700000  -4.9410000
   0.6210000   1.2340000  -5.4560000   1.9370000   0.0420000  -4.2810000
   2.4970000  -0.7890000  -4.7110000   1.6670000  -0.2580000  -3.2690000
   3.0030000   1.1660000  -4.3750000   3.6690000   1.4310000  -5.4140000
   3.3010000   1.7930000  -3.2290000   2.7510000   1.5460000  -2.4180000
   4.5720000   2.4680000  -2.9450000   4.3010000   3.3670000  -2.3910000
   5.0680000   2.6650000  -3.8950000   5.4610000   1.6120000  -2.0160000
   5.4120000   0.4220000  -1.8900000   6.1540000   2.3920000  -1.0970000
   5.9900000   3.3880000  -1.1320000   7.0890000   1.9070000   0.0270000
   7.9280000   1.4440000  -0.4930000   6.5880000   0.8130000   0.9830000
   5.7850000   1.0900000   1.8630000   7.4900000   3.1120000   0.8400000
   8.1980000   2.7710000   1.5940000   6.6250000   3.5110000   1.3710000
   8.2980000   4.3140000   0.2200000   7.6390000   4.8100000  -0.4920000
   8.6200000   5.0190000   0.9870000   9.5840000   3.9510000  -0.5960000
  10.0150000   2.7810000  -0.7920000  10.0990000   4.8940000  -1.2290000
   7.0550000  -0.4110000   0.6640000   7.6090000  -0.4820000  -0.1770000
   7.0070000  -1.5680000   1.5630000   6.9580000  -1.2220000   2.5960000
   7.9030000  -2.1760000   1.4380000   5.8380000  -2.5360000   1.2180000
   5.7830000  -3.5890000   1.8020000   5.0100000  -2.0830000   0.3100000
   5.2880000  -1.1890000  -0.0700000   3.8170000  -2.8350000  -0.0750000
   3.1970000  -2.9830000   0.8090000   4.0980000  -4.2220000  -0.6010000
   5.1270000  -4.6070000  -1.1650000   2.8930000  -2.0480000  -1.0500000
   2.4890000  -1.1070000  -0.6770000   2.0700000  -2.7190000  -1.2950000
   3.5660000  -1.6990000  -2.2730000   4.1980000  -1.0190000  -2.0300000
   3.1630000  -5.1470000  -0.3660000   2.5100000  -4.8910000   0.3610000
   3.4110000  -6.5910000  -0.4550000   3.6300000  -6.7510000  -1.5110000
   4.3440000  -6.8080000   0.0650000   2.2010000  -7.4080000  -0.0680000
   1.1300000  -7.2430000  -0.6350000   2.2890000  -8.2590000   0.9180000
   3.2200000  -8.4080000   1.2810000   1.3290000  -9.3840000   1.1560000
   1.7000000  -9.8950000   2.0440000   1.3840000 -10.1230000   0.3570000
  -0.1070000  -8.9050000   1.4930000  -1.0290000  -9.7370000   1.4050000
  -0.3370000  -7.6160000   1.8910000   0.4660000  -7.0350000   2.0810000
  -1.6480000  -7.0380000   2.1550000  -1.8890000  -7.3820000   3.1610000
  -2.7190000  -7.5270000   1.2130000  -2.7400000  -7.1530000   0.0450000
  -1.5270000  -5.5090000   2.0610000  -2.4060000  -5.0500000   1.6080000
  -0.8170000  -5.2600000   1.2720000  -1.3300000  -4.9070000   3.4670000
  -0.1600000  -4.5890000   3.9700000   0.7200000  -4.5590000   3.3450000
  -2.3180000  -4.6600000   4.5100000  -0.3310000  -4.0680000   5.3110000
   0.4130000  -3.7530000   5.9180000  -1.6610000  -4.0020000   5.6350000
  -3.6810000  -4.7710000   4.5650000  -4.2070000  -5.2230000   3.7360000
  -2.3610000  -3.5460000   6.7460000  -1.7420000  -3.0910000   7.5050000
  -4.3790000  -4.3430000   5.7230000  -5.4390000  -4.5490000   5.7360000
  -3.7590000  -3.7560000   6.8280000  -4.2260000  -3.3280000   7.7030000
  -3.6890000  -8.3160000   1.6750000  -3.7220000  -8.6240000   2.6360000
  -4.8870000  -8.6170000   0.8980000  -5.2060000  -7.7200000   0.3670000
  -5.6520000  -8.9510000   1.5980000  -4.7190000  -9.6530000  -0.2530000
  -5.6140000  -9.9160000  -1.0820000  -3.6110000 -10.4050000  -0.1590000
  -2.9690000 -10.1520000   0.5780000  -3.3540000 -11.6410000  -0.9210000
  -3.7720000 -11.4850000  -1.9150000  -3.9290000 -12.9710000  -0.4440000
  -4.1930000 -13.7640000  -1.3420000  -1.8990000 -11.8070000  -1.2270000
  -1.5170000 -10.9340000  -1.7570000  -1.8260000 -12.6990000  -1.8500000
  -1.0090000 -11.9880000  -0.1440000  -1.1800000 -11.2980000   0.5000000
  -4.0180000 -13.2570000   0.7940000  -4.7910000  -0.3190000   0.2360000
  -5.3740000  -1.5350000  -0.4520000  -6.8380000  -1.3510000  -0.7600000
  -7.6790000  -2.4780000  -0.2570000  -8.5980000  -2.1230000   0.9010000
  -8.5280000  -0.6340000   1.1840000  -9.6040000   0.1830000   0.4780000
  -8.2990000  -2.8070000   1.9890000  -7.7130000  -3.4680000   2.8570000
  -8.3560000  -3.8950000   3.7810000  -6.2500000  -3.6480000   2.7070000
  -5.3820000  -2.7140000   3.0900000  -3.9150000  -2.7950000   2.8760000
  -3.0610000  -2.2850000   3.8390000  -1.6870000  -2.2730000   3.6290000
  -1.1430000  -2.8240000   2.4870000   0.2150000  -2.8500000   2.2440000
   1.0810000  -2.9280000   3.3610000  -1.9890000  -3.3750000   1.5610000
  -3.3700000  -3.3600000   1.7520000  -4.8535570  -0.4494791   1.3264411
  -3.7380423  -0.2002742  -0.0592699  -5.3577924   0.5763000  -0.0592699
  -4.8304684  -1.7075605  -1.3926361  -5.2709331  -2.3954679   0.2254749
  -7.1820032  -0.4180473  -0.2896161  -6.9457643  -1.3187452  -1.8542333
  -8.3014966  -2.8379394  -1.0894312  -6.9809640  -3.2377224   0.1245333
  -9.6240674  -2.3914290   0.6092269  -8.6346596  -0.4826950   2.2683111
  -7.5588307  -0.2825524   0.8003393 -10.2453582   0.6699792   1.2273403
  -9.1284149   0.9496005  -0.1513985 -10.2146793  -0.4810244  -0.1513985
  -5.8696551  -4.5812067   2.2660204  -5.7780949  -1.8228745   3.5989246
  -3.4730495  -1.8861550   4.7776894  -1.0258344  -1.8190460   4.3818517
   0.4902461  -2.8747912   4.2873793   1.6322893  -3.8794350   3.3318170
   1.7934275  -2.0903871   3.3318170  -1.5725348  -3.8361092   0.6532913
  -4.0292482  -3.8061948   0.9928544
