
  649  0.0000000e+00
  -5.7350000  16.0810000  16.8370000  -5.1990000  16.7830000  16.3480000
  -6.3620000  16.7050000  17.3260000  -6.2490000  15.4670000  16.2210000
  -4.8190000  15.3180000  17.7230000  -4.3060000  16.0290000  18.3710000
  -3.8640000  14.4170000  16.9790000  -4.2020000  13.8890000  15.9290000
  -5.5180000  14.5130000  18.8090000  -6.0970000  15.0900000  19.5290000
  -4.7030000  14.0550000  19.3700000  -6.2200000  13.4460000  18.2210000
  -6.5530000  12.9550000  18.9760000  -2.6780000  14.1500000  17.5260000
  -2.4930000  14.6060000  18.4080000  -1.7410000  13.1760000  16.9150000
  -1.4920000  13.5340000  15.9160000  -2.3060000  11.7730000  16.7930000
  -1.9740000  11.1650000  15.8400000  -0.3990000  13.1630000  17.6570000
  -0.1050000  14.2010000  17.8070000   0.7280000  12.4170000  16.8240000
   0.5330000  11.3440000  16.8250000   1.5790000  12.4390000  17.5050000
  -0.5730000  12.4880000  19.0230000  -0.7560000  11.4360000  18.8060000
  -1.4030000  12.9710000  19.5390000   0.3470000  12.4000000  19.6010000
   1.1400000  12.9960000  15.4500000   1.2010000  14.0830000  15.5010000
   2.0160000  12.4680000  15.0730000   0.2880000  12.7920000  14.8020000
  -3.3670000  11.2990000  17.5810000  -3.5350000  11.7880000  18.4480000
  -4.0960000  10.0460000  17.3730000  -3.3660000   9.2370000  17.3420000
  -4.8860000  10.0040000  16.0070000  -4.7350000   9.0540000  15.2760000
  -4.9880000   9.8990000  18.6350000  -4.4160000   9.9720000  19.5610000
  -5.6280000  10.7800000  18.6890000  -5.6520000   8.5620000  18.7150000
  -6.1590000   8.3710000  17.7690000  -4.8500000   7.8470000  18.8980000
  -6.6850000   8.3470000  19.7700000  -7.4140000   9.1550000  19.8300000
  -6.1480000   8.4150000  20.7160000  -7.3840000   7.0130000  19.6630000
  -6.6880000   6.2270000  19.9540000  -7.6140000   6.7690000  18.6260000
  -8.5890000   7.0280000  20.6650000  -9.0230000   6.1460000  20.8960000
  -8.3800000   7.4520000  21.5570000  -9.3320000   7.5400000  20.2100000
  -5.7430000  10.9490000  15.6650000  -6.0550000  11.6420000  16.3310000
  -6.4040000  11.0810000  14.3420000  -7.0800000  10.2680000  14.0770000
  -5.3610000  11.0700000  13.2630000  -5.5950000  10.5320000  12.1370000
  -7.3330000  12.2370000  14.2750000  -7.8120000  12.3590000  13.3030000
  -8.1340000  12.0220000  14.9820000  -6.7310000  13.5260000  14.3690000
  -7.1960000  14.0440000  15.0310000  -4.2000000  11.7270000  13.4860000
  -4.1440000  12.4300000  14.2090000  -3.1860000  11.7480000  12.4540000
  -3.6600000  11.7690000  11.4730000  -2.4780000  10.4050000  12.4010000
  -2.1890000   9.8980000  11.3050000  -2.2090000  12.9370000  12.7100000
  -1.6190000  12.8790000  13.6250000  -2.9710000  14.2850000  12.7820000
  -3.3750000  14.5460000  11.8030000  -3.8570000  14.2920000  13.4160000
  -1.1590000  12.8540000  11.5540000  -1.6770000  12.6880000  10.6100000
  -0.5600000  11.9700000  11.7730000  -0.5430000  13.7500000  11.4780000
  -2.1280000  15.4270000  13.2950000  -1.4720000  15.2250000  14.1420000
  -1.4750000  15.8440000  12.5290000  -2.8790000  16.1390000  13.6370000
  -2.2010000   9.7050000  13.4990000  -2.2500000  10.1940000  14.3810000
  -1.7100000   8.3620000  13.5250000  -0.7710000   8.3090000  12.9760000
  -2.5580000   7.4400000  12.6450000  -1.9570000   6.6810000  11.8280000
  -1.3450000   7.8330000  14.9180000  -1.9880000   8.1460000  15.7400000
  -1.3590000   6.7470000  14.8280000   0.1080000   8.2310000  15.2790000
   0.2680000   9.2840000  15.0470000   0.8240000   7.5560000  14.8090000
   0.3980000   8.2780000  16.7540000  -0.3980000   8.8490000  17.2330000
   0.3580000   7.2890000  17.2100000   1.7610000   8.8850000  17.0460000
   1.6850000   9.8480000  16.5410000   2.5640000   8.3200000  16.5720000
   2.0670000   9.0540000  18.5040000   1.4030000   9.7430000  18.8280000
   1.9370000   8.1950000  19.0190000   2.9990000   9.4400000  18.5560000
  -3.8720000   7.4550000  12.7490000  -4.2320000   8.2090000  13.3160000
  -4.9580000   6.6490000  11.9810000  -4.7130000   5.5870000  11.9590000
  -5.0270000   6.9290000  10.4680000  -5.0740000   6.0560000   9.6520000
  -6.3050000   6.6990000  12.6620000  -7.0060000   6.1010000  12.0810000
  -6.5540000   7.7390000  12.8740000  -6.3780000   6.1200000  13.9870000
  -5.5610000   5.2610000  14.3690000  -7.4260000   6.4280000  14.7340000
  -7.4490000   5.8210000  15.5410000  -8.1770000   7.0390000  14.4470000
  -5.0350000   8.2190000  10.2000000  -5.3510000   8.8790000  10.8960000
  -4.7930000   8.7920000   8.8230000  -5.7290000   8.6100000   8.2960000
  -3.5060000   8.1830000   8.2120000  -3.5880000   7.7530000   7.0590000
  -4.6590000  10.3290000   8.8830000  -5.6110000  10.7740000   9.1740000
  -3.8780000  10.6090000   9.5890000  -4.2500000  10.9780000   7.5150000
  -3.4340000  10.4320000   7.0410000  -5.4040000  10.9260000   6.5310000
  -5.1390000  11.2400000   5.5210000  -5.6700000   9.8690000   6.5290000
  -6.2980000  11.4970000   6.7840000  -3.9410000  12.4010000   7.6780000
  -4.1560000  12.9840000   6.7830000  -4.5110000  12.9090000   8.4560000
  -2.8990000  12.6050000   7.9260000  -2.3180000   8.2240000   8.8910000
  -2.2820000   8.5030000   9.8600000  -1.0520000   7.8200000   8.3610000
  -0.9040000   8.1760000   7.3410000  -1.0450000   6.3650000   8.0470000
  -0.7420000   6.0550000   6.8940000   0.0850000   8.2560000   9.3870000
   0.1080000   9.3450000   9.3520000  -0.2370000   7.9980000  10.3960000
   1.4240000   7.6240000   9.1880000   1.8210000   7.8530000   8.1990000
   1.3250000   6.5480000   9.3370000   2.3840000   8.1190000  10.3110000
   1.9620000   7.9080000  11.2940000   3.3430000   7.6030000  10.2610000
   2.8180000   9.5390000  10.2390000   2.1430000  10.2520000  10.0020000
   4.0230000   9.9740000  10.4730000   5.0850000   9.2450000  10.8720000
   6.0340000   9.5550000  10.7180000   4.9730000   8.2920000  11.1870000
   4.2350000  11.2420000  10.2830000   3.4530000  11.8650000  10.1440000
   5.0210000  11.6960000  10.7260000  -1.4690000   5.5590000   9.0250000
  -1.6020000   5.9980000   9.9250000  -1.8740000   4.1930000   8.9120000
  -0.9930000   3.6270000   8.6120000  -2.7110000   4.0030000   7.6340000
  -2.2810000   3.3940000   6.6700000  -2.5400000   3.5860000  10.1630000
  -1.8300000   3.6880000  10.9840000  -3.5080000   3.9970000  10.4480000
  -2.7740000   1.9730000  10.0090000  -3.4010000   1.7620000   9.1430000
  -1.8200000   1.5010000   9.7740000  -3.4200000   1.2430000  11.2230000
  -4.4480000   1.5830000  11.3470000  -2.8100000   1.3850000  12.1150000
  -3.4800000  -0.2760000  10.9920000  -3.7410000  -0.7620000  11.9320000
  -2.5210000  -0.7590000  10.8020000  -4.4930000  -0.6490000   9.9660000
  -5.3370000  -0.0960000   9.9740000  -4.0630000  -0.6460000   9.0520000
  -4.6680000  -1.6440000   9.9520000  -3.8820000   4.6850000   7.5600000
  -4.2690000   5.0290000   8.4270000  -4.7840000   4.5960000   6.3760000
  -5.2080000   3.5980000   6.2650000  -4.0180000   4.8400000   5.0640000
  -4.2700000   4.2060000   4.0150000  -6.0260000   5.4170000   6.6230000
  -5.6650000   6.4180000   6.8630000  -6.4940000   5.5630000   5.6500000
  -7.0140000   4.8570000   7.5760000  -6.6600000   3.8160000   8.2110000
  -8.0800000   5.4710000   7.7040000  -3.0030000   5.8190000   4.9810000
  -2.7980000   6.4140000   5.7710000  -2.2350000   6.1070000   3.7800000
  -2.9290000   6.0730000   2.9400000  -1.1720000   5.1010000   3.5220000
  -1.0120000   4.6520000   2.3900000  -1.7160000   7.5310000   3.7370000
  -0.8120000   7.5600000   3.1300000  -1.3210000   7.8220000   4.7110000
  -2.4910000   8.6350000   3.1950000  -2.9050000   9.7400000   3.8810000
  -2.7700000   9.9640000   4.9290000  -3.0640000   8.6980000   1.9100000
  -3.6310000  10.5530000   3.0190000  -3.9600000  11.4900000   3.2040000
  -3.8290000   9.9090000   1.8060000  -3.0060000   7.9550000   0.7360000
  -2.5370000   6.9820000   0.7500000  -4.5410000  10.2630000   0.7010000
  -5.1570000  11.1480000   0.7610000  -3.5600000   8.4190000  -0.4460000
  -3.5910000   7.8290000  -1.3500000  -4.3340000   9.5800000  -0.4600000
  -4.9250000   9.8750000  -1.3150000  -0.4240000   4.6150000   4.4950000
  -0.6240000   4.9240000   5.4350000   0.5660000   3.5780000   4.2600000
   1.1580000   3.7710000   3.3650000  -0.0470000   2.1520000   3.9270000
   0.5300000   1.3840000   3.2460000   1.5460000   3.5680000   5.4440000
   0.9220000   3.5200000   6.3360000   2.4250000   4.8740000   5.4880000
   2.9600000   4.9400000   4.5410000   1.6960000   5.6780000   5.5880000
   2.5200000   2.3790000   5.5480000   3.2600000   2.3170000   4.7500000
   1.9010000   1.4830000   5.6030000   3.1210000   2.4770000   6.4520000
   3.2970000   5.0990000   6.7500000   3.6350000   6.1290000   6.8640000
   2.7400000   4.8840000   7.6620000   4.1930000   4.4790000   6.7210000
  -1.2300000   1.8810000   4.4430000  -1.6890000   2.4320000   5.1550000
  -1.9390000   0.6210000   4.1450000  -1.2610000  -0.1960000   4.3920000
  -2.4150000   0.6150000   2.6660000  -2.4700000  -0.4660000   2.0680000
  -3.1520000   0.4480000   5.0800000  -3.9070000  -0.2230000   4.6690000
  -3.5860000   1.4450000   5.0050000  -2.7790000   0.1050000   6.5720000
  -1.5960000  -0.1850000   6.8650000  -3.7170000  -0.1340000   7.3670000
  -2.7440000   1.8450000   2.1450000  -2.7790000   2.5910000   2.8260000
  -2.9580000   2.1310000   0.7020000  -3.5810000   1.3160000   0.3320000
  -1.5710000   1.9960000  -0.0890000  -1.6690000   1.6380000  -1.2600000
  -3.5400000   3.5710000   0.5770000  -3.3540000   4.0300000  -0.3930000
  -2.9870000   4.2870000   1.1860000  -5.0610000   3.5570000   0.8720000
  -5.2080000   3.0340000   1.8170000  -5.6480000   3.0980000   0.0770000
  -5.6460000   4.9840000   0.9390000  -5.5670000   5.5970000   0.0410000
  -5.0200000   5.5820000   1.6010000  -6.9770000   4.9980000   1.7040000
  -7.4120000   5.9780000   1.8990000  -6.9220000   4.5780000   2.7080000
  -8.0620000   4.3040000   1.0080000  -8.3010000   4.7350000   0.1260000
  -8.8940000   4.2450000   1.5760000  -7.7730000   3.3600000   0.7960000
  -0.3940000   2.2140000   0.5370000  -0.4020000   2.9090000   1.2700000
   0.8540000   1.9160000  -0.1420000   0.6710000   2.1130000  -1.1980000
   1.2670000   0.4660000  -0.1520000   1.5960000  -0.0260000  -1.2010000
   1.9520000   2.9150000   0.3490000   2.1640000   2.7440000   1.4040000
   2.8740000   2.6510000  -0.1690000   1.6720000   4.4110000   0.0900000
   0.8170000   4.7720000   0.6620000   2.9100000   5.2220000   0.4190000
   2.6080000   6.2680000   0.3620000   3.2380000   5.0390000   1.4420000
   3.7500000   4.9980000  -0.2380000   1.3630000   4.8420000  -1.3600000
   0.3150000   4.6070000  -1.5490000   2.0390000   4.4460000  -2.1170000
   1.2920000   5.9280000  -1.4200000   1.2100000  -0.1190000   1.0420000
   1.0630000   0.4920000   1.8330000   1.6280000  -1.5240000   1.2630000
   2.7010000  -1.6100000   1.0940000   0.7900000  -2.4520000   0.3210000
   1.3560000  -3.2420000  -0.3780000   1.4290000  -2.0130000   2.7530000
   0.4470000  -1.6380000   3.0410000   2.5360000  -1.2570000   3.4820000
   2.7120000  -0.2520000   3.0990000   3.5040000  -1.7330000   3.3220000
   1.4350000  -3.5130000   3.0190000   1.1910000  -3.7310000   4.0590000
   2.4090000  -3.9270000   2.7600000   0.6120000  -4.0190000   2.5140000
   2.3430000  -1.2350000   4.9910000   3.1610000  -0.6450000   5.4030000
   2.4960000  -2.1890000   5.4970000   1.3130000  -0.9050000   5.1270000
  -0.5630000  -2.2480000   0.2430000  -0.9770000  -1.5320000   0.8240000
  -1.3800000  -2.9480000  -0.7010000  -1.0310000  -3.9800000  -0.7340000
  -1.0610000  -2.4830000  -2.1350000  -0.9330000  -3.4400000  -2.8980000
  -2.9450000  -2.7510000  -0.4300000  -3.4820000  -2.6660000  -1.3750000
  -3.0370000  -1.7720000   0.0400000  -3.5000000  -3.8510000   0.4300000
  -2.8840000  -4.9130000   0.6370000  -4.6360000  -3.7350000   0.9890000
  -0.8170000  -1.1920000  -2.4740000  -0.9600000  -0.4490000  -1.8040000
  -0.6210000  -0.9170000  -3.8940000  -1.4760000  -1.2760000  -4.4670000
   0.5590000  -1.6540000  -4.4400000   0.4300000  -2.3090000  -5.4420000
  -0.4500000   0.5690000  -4.1910000   0.4710000   0.8770000  -3.6970000
  -1.2650000   1.1350000  -3.7410000  -0.1890000   0.9140000  -5.6610000
   0.7560000   0.4760000  -5.9840000  -0.9350000   0.4520000  -6.3060000
  -0.0970000   2.5200000  -5.7560000   0.8100000   2.9810000  -5.3630000
  -0.8520000   3.1080000  -5.2360000  -0.3200000   2.9860000  -7.2310000
  -0.7550000   3.9840000  -7.2760000  -1.0610000   2.2410000  -7.5230000
   0.8360000   2.7540000  -8.0840000   1.4630000   3.5340000  -7.9490000
   1.2900000   1.8570000  -7.9880000   0.5810000   2.8290000  -9.0580000
   1.7000000  -1.5640000  -3.7370000   1.6900000  -0.8880000  -2.9870000
   2.9560000  -2.3510000  -3.8860000   3.4130000  -2.1110000  -4.8460000
   2.6850000  -3.8960000  -3.9730000   3.2560000  -4.6360000  -4.8290000
   4.0100000  -2.2200000  -2.7600000   4.8630000  -2.8130000  -3.0910000
   3.6410000  -2.6470000  -1.8270000   4.6070000  -0.7890000  -2.7290000
   5.1170000  -0.3450000  -3.7500000   4.6450000  -0.0950000  -1.6190000
   5.0630000   0.8230000  -1.5690000   4.0960000  -0.4790000  -0.8630000
   1.8360000  -4.4830000  -3.1520000   1.6300000  -3.9040000  -2.3500000
   1.5190000  -5.9320000  -3.2150000   2.4430000  -6.5080000  -3.2600000
   0.8820000  -6.2870000  -4.5730000   1.2570000  -7.2490000  -5.2630000
   0.6270000  -6.4810000  -2.0810000  -0.3100000  -5.9420000  -1.9420000
   1.1470000  -6.3090000  -1.1380000   0.3740000  -8.0100000  -2.2780000
  -0.4420000  -8.1170000  -2.9930000   1.2420000  -8.4380000  -2.7780000
   0.0630000  -8.6460000  -0.9590000   0.8700000  -9.4270000  -0.4580000
  -0.9980000  -8.4130000  -0.3780000  -0.0170000  -5.4240000  -5.0020000
  -0.1460000  -4.5430000  -4.5250000  -0.7390000  -5.6140000  -6.2960000
  -1.1160000  -6.6320000  -6.3960000   0.2240000  -5.4840000  -7.4450000
   0.3200000  -6.3830000  -8.3020000  -1.9820000  -4.6510000  -6.3090000
  -2.3170000  -4.3380000  -7.2980000  -1.6530000  -3.7140000  -5.8590000
  -3.2050000  -5.1070000  -5.4210000  -4.2270000  -5.6150000  -5.8570000
  -3.0910000  -5.0210000  -4.1280000  -3.6890000  -5.5370000  -3.4990000
  -2.3040000  -4.4940000  -3.7750000   1.0950000  -4.4940000  -7.4690000
   1.1260000  -3.7490000  -6.7880000   2.2010000  -4.4780000  -8.3530000
   1.7160000  -4.4890000  -9.3290000   3.0580000  -5.7580000  -8.4450000
   3.6390000  -5.9420000  -9.5620000   3.0040000  -3.2010000  -8.1170000
   3.8430000  -3.2940000  -8.8070000   3.2850000  -3.2040000  -7.0630000
   2.2110000  -2.0020000  -8.5880000   1.2860000  -1.8870000  -8.0230000
   2.1270000  -1.9790000  -9.6750000   2.9380000  -0.7020000  -8.1560000
   4.1540000  -0.8010000  -7.8800000   2.3250000   0.3880000  -8.0430000
   3.2460000  -6.4720000  -7.3160000   2.8670000  -6.0620000  -6.4750000
   3.9980000  -7.7140000  -7.3470000   4.7250000  -7.6630000  -8.1580000
   3.1980000  -8.8950000  -7.9630000   3.7630000  -9.6620000  -8.7790000
   4.6190000  -7.9930000  -5.9860000   5.3630000  -7.2150000  -5.8150000
   3.7990000  -7.8040000  -5.2930000   5.1650000  -9.3760000  -5.8080000
   6.3990000  -9.7050000  -6.4920000   6.9200000  -8.9490000  -7.0610000
   4.4720000 -10.3960000  -5.1120000   3.5860000 -10.1860000  -4.5310000
   6.8360000 -11.0590000  -6.5410000   7.7340000 -11.2740000  -7.1010000
   4.9280000 -11.7330000  -5.1750000   4.3810000 -12.4650000  -4.6000000
   6.0600000 -12.1030000  -5.9550000   6.4180000 -13.1200000  -5.8930000
   1.9280000  -9.0290000  -7.5120000   1.6000000  -8.3480000  -6.8420000
   1.0650000 -10.0910000  -7.9020000   1.5880000 -11.0480000  -7.8940000
   0.6250000  -9.8570000  -9.3070000   0.6190000 -10.8930000 -10.0070000
  -0.1330000 -10.2820000  -6.9390000  -0.6800000  -9.3430000  -6.8470000
   0.3040000 -10.6780000  -5.5060000   0.7660000 -11.6650000  -5.4580000
   0.9430000  -9.8320000  -5.2540000  -1.1570000 -11.3290000  -7.4250000
  -1.9730000 -11.4950000  -6.7220000  -1.5970000 -11.1070000  -8.3980000
  -0.6820000 -12.3090000  -7.4680000  -0.8680000 -10.6830000  -4.4460000
  -1.5710000  -9.8950000  -4.7130000  -1.4250000 -11.6190000  -4.4810000
  -0.4920000 -10.6290000  -3.4240000   0.3530000  -8.7360000  -9.8640000
   0.2010000  -7.9640000  -9.2300000  -0.1930000  -8.6100000 -11.1960000
  -0.9610000  -9.3650000 -11.3650000   0.8340000  -8.7150000 -12.3790000
   0.6110000  -9.1910000 -13.4850000  -0.9400000  -7.2490000 -11.2340000
  -0.2460000  -6.4170000 -11.1220000  -1.6970000  -7.1930000 -10.4510000
  -1.6750000  -7.1450000 -12.5650000  -1.8690000  -8.1270000 -12.9950000
  -1.0800000  -6.5970000 -13.2960000  -3.0110000  -6.3650000 -12.3910000
  -3.1030000  -5.5470000 -11.5080000  -3.9570000  -6.6220000 -13.2070000
   2.0640000  -8.3130000 -11.9870000   2.2000000  -7.7100000 -11.1890000
   3.3030000  -8.6440000 -12.7450000   3.0940000  -8.3350000 -13.7690000
   3.6550000 -10.1120000 -12.6200000   3.9020000 -10.7640000 -13.6230000
   4.4190000  -7.6650000 -12.3170000   3.9830000  -6.6730000 -12.4310000
   4.7130000  -7.7730000 -11.2730000   5.6010000  -7.7260000 -13.2540000
   5.2160000  -7.5470000 -14.2580000   6.1350000  -8.6760000 -13.2660000
   6.7640000  -6.8260000 -12.9820000   7.5140000  -6.8570000 -13.7720000
   6.4630000  -5.7840000 -12.8720000   7.4530000  -7.4670000 -11.7350000
   6.6710000  -7.6740000 -11.0050000   8.0140000  -8.3150000 -12.1290000
   8.3580000  -6.4840000 -11.1940000   8.9900000  -6.2310000 -11.9410000
   7.9010000  -5.6560000 -10.8420000   8.8480000  -6.6070000 -10.3190000
   3.3010000 -10.6970000 -11.4540000   3.2930000 -10.0660000 -10.6650000
   3.6260000 -12.1640000 -11.2900000   4.6600000 -12.3310000 -11.5920000
   2.7570000 -13.0970000 -12.1500000   3.2380000 -14.1210000 -12.6840000
   3.4270000 -12.6040000  -9.8470000   3.8790000 -11.8930000  -9.1550000
   2.3740000 -12.7500000  -9.6030000   4.0770000 -13.7840000  -9.5940000
   5.0310000 -13.6830000  -9.6340000   1.4650000 -12.7240000 -12.4350000
   1.0260000 -12.0000000 -11.8840000   0.6950000 -13.4330000 -13.4760000
   0.4160000 -14.4500000 -13.1980000   1.2780000 -13.4190000 -14.9150000
   0.9620000 -14.3600000 -15.5960000  -0.6830000 -12.8060000 -13.4350000
  -0.5550000 -11.7700000 -13.7480000  -1.3770000 -13.1700000 -14.1930000
  -1.4820000 -12.8470000 -12.1160000  -1.2930000 -13.7550000 -11.1450000
  -0.6060000 -14.5880000 -11.1290000  -2.5640000 -12.0130000 -11.7220000
  -2.3340000 -13.5940000 -10.2070000  -2.4590000 -14.1520000  -9.3740000
  -3.1050000 -12.4690000 -10.4450000  -3.1020000 -10.8720000 -12.3330000
  -2.5680000 -10.5000000 -13.1950000  -4.2220000 -11.9030000  -9.8560000
  -4.5480000 -12.3150000  -8.9130000  -4.0340000 -10.1400000 -11.5770000
  -4.2640000  -9.1550000 -11.9550000  -4.6700000 -10.6780000 -10.4060000
  -5.4370000 -10.0820000  -9.9340000   1.9430000 -12.4270000 -15.4110000
   2.1190000 -11.6520000 -14.7880000   2.7830000 -12.3610000 -16.5860000
   2.3020000 -12.8440000 -17.4370000   4.1240000 -13.1440000 -16.3760000
   4.5540000 -13.7040000 -17.3510000   3.1090000 -10.8550000 -16.9430000
   3.7040000 -10.5140000 -16.0960000   3.7470000 -10.6770000 -17.8090000
   1.7680000 -10.0900000 -17.2120000   1.1290000 -10.1910000 -16.3340000
   1.2380000 -10.3230000 -18.1360000   2.0130000  -8.5500000 -17.2260000
   2.2300000  -8.2460000 -18.2500000   2.8690000  -8.4110000 -16.5650000
   0.7780000  -7.7770000 -16.8190000  -0.0630000  -8.0560000 -17.4540000
   0.5990000  -7.9590000 -15.7590000   0.8890000  -6.3330000 -16.8610000
   1.5240000  -6.0540000 -16.1260000   0.0050000  -5.8600000 -16.7430000
   1.1560000  -6.0250000 -17.7850000   4.7550000 -13.0660000 -15.2530000
   4.4440000 -12.5090000 -14.4700000   5.9910000 -13.8400000 -15.0800000
   6.6500000 -13.5900000 -15.9120000   5.7600000 -15.3400000 -15.1810000
   6.6080000 -15.9590000 -15.8150000   6.6220000 -13.4810000 -13.7230000
   5.8630000 -13.5220000 -12.9420000   7.2830000 -14.3150000 -13.4850000
   7.4090000 -12.1180000 -13.7900000   8.3220000 -12.3470000 -14.3390000
   6.8000000 -11.4270000 -14.3720000   7.7950000 -11.4910000 -12.4380000
   7.1210000 -11.8420000 -11.4230000   8.7340000 -10.6560000 -12.4200000
   4.6330000 -15.9040000 -14.6820000   4.0070000 -15.3190000 -14.1460000
   4.2500000 -17.3330000 -14.8640000   5.0570000 -17.9580000 -14.4820000
   3.9630000 -17.7220000 -16.2950000   4.2710000 -18.8350000 -16.7280000
   2.9800000 -17.5970000 -14.0470000   2.1450000 -16.9290000 -14.2600000
   2.6330000 -18.6060000 -14.2680000   3.3100000 -17.5290000 -12.5370000
   4.4530000 -17.8930000 -12.1810000   2.4330000 -17.3040000 -11.7230000
   3.4710000 -16.7360000 -17.0830000   3.2550000 -15.8460000 -16.6560000
   2.8340000 -17.0740000 -18.3950000   2.3440000 -18.0480000 -18.3620000
   3.8250000 -17.1150000 -19.5830000   3.7690000 -18.0660000 -20.3010000
   1.7610000 -15.9920000 -18.7650000   1.7280000 -15.7890000 -19.8350000
   1.9630000 -15.1160000 -18.1480000   0.2600000 -16.2520000 -18.6240000
   0.0690000 -16.6130000 -17.6140000  -0.5060000 -14.9330000 -18.9530000
  -0.2500000 -14.3050000 -18.0990000  -1.5580000 -15.2090000 -19.0140000
  -0.1320000 -14.4340000 -19.8460000  -0.1970000 -17.2340000 -19.7190000
  -1.1690000 -17.6670000 -19.4800000  -0.2790000 -16.6630000 -20.6440000
   0.4860000 -18.0730000 -19.8530000   4.6420000 -16.0720000 -19.7300000
   4.4810000 -15.3160000 -19.0800000   5.3830000 -15.6850000 -20.9610000
   5.1450000 -16.3050000 -21.8260000   6.8830000 -15.7870000 -20.7460000
   7.5350000 -16.5710000 -21.5460000   5.2060000 -14.2700000 -21.3500000
   5.8200000 -13.5360000 -20.8290000   5.5520000 -14.1920000 -22.3810000
   3.8160000 -13.7650000 -21.3660000   3.0150000 -13.8520000 -22.5390000
   3.3670000 -14.3230000 -23.4450000   3.3390000 -13.0410000 -20.2530000
   3.8870000 -12.9430000 -19.3270000   1.7260000 -13.2610000 -22.5720000
   1.1540000 -13.2800000 -23.4880000   2.0020000 -12.6510000 -20.1700000
   1.6250000 -12.1050000 -19.3180000   1.1970000 -12.6960000 -21.3730000
  -0.0570000 -12.2140000 -21.3390000  -0.5120000 -12.3160000 -22.1780000
   7.4800000 -15.1470000 -19.8470000  -0.3850000  11.1240000   0.0630000
   0.8670000  10.4990000   0.5710000   1.3140000  10.8790000   1.9500000
   0.2780000  11.4060000   2.8820000   0.7340000  11.5700000   4.2950000
  -0.4970000  11.7620000   5.1620000  -0.2510000  12.1130000   6.6010000
   1.4790000  10.4100000   4.6520000   2.6810000  10.4780000   5.2760000
   3.1300000  11.5110000   5.6600000   3.3750000   9.1620000   5.4220000
   4.0890000   8.6580000   4.4310000   4.6990000   7.2950000   4.4660000
   4.4910000   6.4590000   3.3990000   5.0100000   5.1720000   3.3910000
   5.7580000   4.7130000   4.4590000   6.2700000   3.4650000   4.4960000
   5.9660000   2.5500000   3.4450000   5.9770000   5.5660000   5.5410000
   5.4540000   6.8630000   5.5400000  -1.0100000  11.4360000   0.9127000
  -0.1339000  12.0025000  -0.5495000  -0.9362000  10.3953000  -0.5495000
   0.7203000   9.4089000   0.5598000   1.6591000  10.8711000  -0.0954000
   1.7515000   9.9829000   2.4144000   2.0121000  11.7159000   1.8005000
  -0.0482000  12.3889000   2.5111000  -0.5303000  10.6602000   2.9013000
   1.3852000  12.4460000   4.4312000  -1.0965000  12.5703000   4.7180000
  -0.9970000  10.7824000   5.1812000  -0.7614000  11.3848000   7.2485000
   0.8298000  12.0902000   6.8044000  -0.6412000  13.1212000   6.8044000
   3.2901000   8.6057000   6.3672000   4.2422000   9.2746000   3.5330000
   3.9050000   6.8133000   2.5381000   4.8251000   4.5132000   2.5297000
   5.6469000   1.5895000   3.8759000   5.1560000   2.9606000   2.8243000
   6.8607000   2.3942000   2.8243000   6.5657000   5.2156000   6.4017000
   5.6425000   7.5358000   6.3896000
