
  421  0.0000000e+00
   0.2780000   2.5580000  -9.9390000   0.8790000   2.5850000 -10.7510000
  -0.2310000   3.4230000 -10.0520000  -0.3200000   1.7540000  -9.8140000
   1.1960000   2.5190000  -8.7210000   1.6790000   1.5540000  -8.8760000
   0.4920000   2.5730000  -7.4180000  -0.4380000   3.3620000  -7.1650000
   2.3100000   3.5780000  -8.8480000   1.8600000   4.5690000  -8.8870000
   2.9620000   3.4720000  -7.9800000   3.1950000   3.3620000 -10.0360000
   3.9330000   2.1610000 -10.0460000   3.8370000   1.5230000  -9.1800000
   3.2520000   4.1990000 -11.1260000   2.7310000   5.1450000 -11.1040000
   4.7270000   1.8080000 -11.2110000   5.3150000   0.9030000 -11.2010000
   4.0340000   3.9010000 -12.2570000   3.9620000   4.5290000 -13.1330000
   4.7700000   2.7200000 -12.3160000   5.5360000   2.3810000 -13.3920000
   5.7760000   3.1110000 -13.9680000   0.9150000   1.7480000  -6.4500000
   1.6590000   1.1140000  -6.7050000   0.4160000   1.4820000  -5.0890000
   0.5830000   2.3730000  -4.4840000   0.9410000   0.6630000  -4.5980000
  -1.0680000   1.1770000  -5.0920000  -1.6220000   0.9040000  -6.1530000
  -1.7800000   1.1900000  -3.9690000  -1.2910000   1.5070000  -3.1450000
  -3.1790000   0.8440000  -3.8510000  -3.6060000   0.7920000  -4.8520000
  -3.1860000  -0.0940000  -3.2950000  -3.9700000   1.8560000  -3.0130000
  -3.4710000   2.9700000  -2.8250000  -5.1320000   1.5390000  -2.4570000
  -5.3550000   0.5540000  -2.4410000  -5.7430000   2.2520000  -1.3080000
  -4.8610000   2.7170000  -0.8670000  -6.4650000   1.2140000  -0.4520000
  -6.7590000   0.0470000  -0.8890000  -6.5770000   3.4680000  -1.7310000
  -6.9290000   3.9620000  -0.8250000  -5.9230000   4.1760000  -2.2400000
  -7.8020000   3.1260000  -2.6360000  -7.6210000   2.9230000  -3.8790000
  -8.9540000   3.1630000  -2.0890000  -6.7270000   1.5750000   0.8150000
  -6.3890000   2.4890000   1.0800000  -7.3070000   0.6090000   1.8140000
  -6.8350000  -0.3710000   1.8910000  -8.3860000   0.5140000   1.6970000
  -7.1690000   1.1530000   3.2010000  -7.0390000   2.3940000   3.4150000
  -7.2980000   0.3030000   4.2330000  -7.6400000  -0.6210000   4.0100000
  -7.1250000   0.7110000   5.6140000  -7.0870000   1.8000000   5.5850000
  -5.8670000   0.0800000   6.1790000  -5.2290000  -0.8030000   5.6890000
  -8.3730000   0.3370000   6.4050000  -8.1230000   0.5820000   7.4380000
  -8.4330000  -0.7280000   6.1810000  -9.6490000   1.0530000   6.0530000
  -9.8060000   2.3590000   6.3790000  -8.9860000   2.8890000   6.8380000
 -10.6040000   0.4070000   5.2280000 -10.4560000  -0.6450000   5.0370000
 -11.0170000   2.9520000   6.1350000 -11.1320000   3.9580000   6.5090000
 -11.6410000   1.1450000   4.6410000 -12.3310000   0.6870000   3.9470000
 -11.8070000   2.4230000   5.1430000 -12.6630000   3.0100000   4.8450000
  -5.5030000   0.6760000   7.3190000  -6.0260000   1.4730000   7.6520000
  -4.1520000   0.5070000   7.8720000  -4.1450000  -0.5300000   8.2080000
  -4.0110000   1.1690000   8.7270000  -2.9350000   0.7220000   6.9310000
  -3.0580000   1.4600000   5.9900000  -1.8360000   0.1180000   7.3670000
  -1.8960000  -0.1570000   8.3370000  -0.5770000   0.0960000   6.6250000
  -0.1180000   1.0840000   6.6510000  -0.8110000  -0.2230000   5.1520000
  -1.5990000  -1.0500000   4.8530000   0.2780000  -1.0080000   7.3170000
   1.1000000  -1.2810000   6.6550000  -0.2580000  -1.9410000   7.4930000
   0.8600000  -0.6030000   8.6960000   1.4100000   0.3330000   8.5910000
   0.0450000  -0.5590000   9.4180000   1.9270000  -1.6930000   8.9320000
   2.6720000  -1.6720000   8.1370000   1.4760000  -2.6700000   9.1070000
   2.6810000  -1.4520000  10.2050000   3.3220000  -0.5810000  10.0730000
   3.4010000  -2.2650000  10.3090000   1.8610000  -1.4570000  11.4340000
   1.3990000  -0.5580000  11.4120000   2.4790000  -1.4870000  12.2320000
   1.2640000  -2.2670000  11.3520000   0.0710000   0.3340000   4.3230000
   0.4850000   1.1570000   4.7360000   0.3080000  -0.1520000   2.9690000
   0.3260000  -1.2410000   2.9220000  -0.5300000   0.1650000   2.3480000
   1.6300000   0.3010000   2.3280000   2.6160000   0.4930000   3.0890000
   1.6450000   0.5860000   1.0210000   0.8100000   0.3860000   0.4890000
   2.7230000   1.4470000   0.4680000   2.5430000   2.5110000   0.6180000
   3.7120000   1.1930000   0.8500000   2.9140000   1.2650000  -0.9900000
   2.0700000   1.4570000  -1.8540000   4.0790000   0.7010000  -1.3610000
   4.6470000   0.1070000  -0.7720000   4.5000000   0.7310000  -2.7790000
   3.8120000   0.2930000  -3.5020000   5.3850000   0.0980000  -2.8500000
   4.9230000   2.0070000  -3.4030000   4.8880000   3.0390000  -2.8280000
   5.3590000   1.9470000  -4.6340000   5.1710000   1.0460000  -5.0510000
   5.6410000   3.0770000  -5.5480000   6.4020000   3.7200000  -5.1060000
   4.3490000   3.9290000  -5.5630000   3.2410000   3.3940000  -5.6040000
   5.8360000   2.7010000  -7.0030000   5.0760000   1.9770000  -7.2990000
   5.7440000   3.5580000  -7.6700000   7.0960000   1.7720000  -7.1780000
   7.0240000   0.9360000  -6.4830000   8.4400000   2.4990000  -6.9470000
   8.5010000   2.8930000  -5.9330000   9.2480000   1.7930000  -7.1360000
   8.5850000   3.2920000  -7.6810000   7.3320000   1.1450000  -8.5440000
   8.0910000   0.3710000  -8.4250000   6.4350000   0.7070000  -8.9810000
   7.6120000   1.9110000  -9.2670000   4.4710000   5.2240000  -5.5860000
   5.3890000   5.6380000  -5.5080000   3.3050000   6.1750000  -5.4300000
   3.5170000   7.1340000  -5.9020000   2.5030000   5.7810000  -6.0550000
   2.7210000   6.3260000  -4.0270000   2.0480000   7.3470000  -3.6860000
   2.8770000   5.2640000  -3.1850000   3.5670000   4.5620000  -3.4100000
   2.1740000   4.9970000  -1.8990000   2.7750000   4.2180000  -1.4300000
   2.2100000   5.8800000  -1.2600000   0.7510000   4.4340000  -2.0400000
   0.0640000   4.4840000  -3.0770000   0.3090000   3.8280000  -0.8910000
   0.8290000   3.8710000  -0.0260000  -0.8600000   3.0310000  -0.8280000
  -0.6590000   2.0260000  -1.1990000  -1.7160000   3.3780000  -1.4080000
  -1.2720000   2.7340000   0.6200000  -0.4590000   2.7020000   1.5860000
  -2.5190000   2.1830000   0.7570000  -2.8730000   1.8660000  -0.1340000
  -3.0700000   1.4700000   2.0270000  -2.1970000   1.2830000   2.6530000
  -3.7370000   0.1190000   1.7910000  -4.1520000  -0.1700000   0.6660000
  -3.9000000   2.4720000   2.8660000  -4.7180000   2.9860000   2.3620000
  -4.3070000   1.9290000   3.7190000  -2.9810000   3.5220000   3.4570000
  -2.3800000   3.9650000   2.6640000  -2.2720000   3.1670000   4.2050000
  -3.7980000   4.6550000   4.1030000  -4.7170000   4.2370000   4.5150000
  -4.2010000   5.2900000   3.3140000  -2.9450000   5.4350000   5.0670000
  -2.0950000   5.8460000   4.5210000  -2.5630000   4.7460000   5.8210000
  -3.7640000   6.4460000   5.8070000  -4.1860000   7.0440000   5.1110000
  -3.2480000   7.0580000   6.4230000  -4.4170000   5.9380000   6.3870000
  -3.7690000  -0.7290000   2.8100000  -3.2960000  -0.5650000   3.6870000
  -3.9440000  -2.1820000   2.6380000  -4.9840000  -2.3160000   2.3390000
  -3.8860000  -2.6200000   3.6340000  -2.9530000  -2.8810000   1.7280000
  -1.8570000  -2.3780000   1.4670000  -3.2640000  -4.0630000   1.2350000
  -4.1550000  -4.3770000   1.5920000  -2.5180000  -4.8860000   0.2950000
  -3.0930000  -5.8040000   0.1770000  -1.5660000  -5.2250000   0.7030000
  -2.2380000  -4.1880000  -1.0410000  -2.8110000  -3.1420000  -1.3700000
  -1.4630000  -4.9310000  -1.8410000  -1.0550000  -5.7770000  -1.4690000
  -0.8630000  -4.3860000  -3.0580000  -1.6490000  -4.1210000  -3.7640000
  -0.3390000  -5.2000000  -3.5600000   0.1560000  -3.2400000  -2.9020000
   0.5990000  -2.7320000  -1.8730000   0.4990000  -2.7490000  -4.0590000
   0.0790000  -3.1660000  -4.8770000   1.6730000  -1.8570000  -4.3700000
   1.4770000  -1.4910000  -5.3780000   1.7070000  -1.0220000  -3.6700000
   3.0990000  -2.5090000  -4.3490000   3.3840000  -3.3650000  -3.5870000
   3.9630000  -2.0460000  -5.3400000   3.5010000  -1.4660000  -6.0260000
   5.3270000  -2.5480000  -5.5210000   5.3190000  -3.6280000  -5.6670000
   6.1900000  -2.1800000  -4.1860000   6.7090000  -1.0470000  -4.1110000
   5.9140000  -1.9700000  -6.8350000   5.7050000  -0.9000000  -6.8610000
   6.9710000  -2.2280000  -6.7840000   5.3100000  -2.7440000  -8.0810000
   4.3780000  -3.2200000  -7.7740000   6.2790000  -3.8190000  -8.6190000
   7.1740000  -3.3680000  -9.0480000   5.7280000  -4.4290000  -9.3350000
   6.5920000  -4.4340000  -7.7750000   5.1580000  -1.8840000  -9.3860000
   4.3430000  -1.1610000  -9.4000000   6.1030000  -1.4120000  -9.6570000
   4.8770000  -2.5450000 -10.2050000   6.2900000  -3.1040000  -3.2200000
   5.5890000  -3.8320000  -3.2150000   7.0000000  -2.9470000  -1.9350000
   7.2250000  -3.9260000  -1.5100000   8.0000000  -2.5820000  -2.1710000
   6.3140000  -2.0300000  -0.9200000   5.0540000  -1.8700000  -0.8890000
   7.0280000  -1.5010000   0.0570000   7.9670000  -1.8720000   0.0540000
   6.5220000  -0.9960000   1.3680000   7.3910000  -0.5550000   1.8560000
   5.7160000  -0.2720000   1.2430000   5.9920000  -2.0950000   2.3010000
   6.5580000  -3.2210000   2.3110000   5.0220000  -1.8200000   3.1690000
   4.6390000  -0.8860000   3.2030000   4.3900000  -2.7460000   4.1140000
   5.1890000  -3.4730000   4.2560000   3.1680000  -3.5220000   3.5280000
   2.3680000  -3.0510000   2.6620000   3.9530000  -2.1230000   5.4920000
   3.6050000  -2.9010000   6.1720000   3.0780000  -1.5360000   5.2090000
   4.8680000  -1.2130000   6.1440000   6.1720000  -1.4880000   6.4770000
   6.6860000  -2.4240000   6.3140000   4.6520000   0.2190000   6.4890000
   6.8220000  -0.3000000   6.7550000   7.8150000  -0.1470000   6.6500000
   5.9390000   0.7560000   6.7560000   3.5590000   1.0670000   6.5260000
   2.6150000   0.6490000   6.2110000   6.1480000   2.1300000   6.9920000
   7.1510000   2.3950000   7.2910000   3.7360000   2.4260000   6.7310000
   2.8910000   3.0940000   6.6470000   5.0130000   3.0160000   6.9090000
   5.0640000   4.0860000   7.0490000   3.0670000  -4.7630000   3.9580000
   3.7840000  -5.0560000   4.6060000   1.8860000  -5.6590000   3.8100000
   1.4490000  -5.6860000   2.8120000   2.0160000  -6.6460000   4.2530000
   0.7010000  -5.1180000   4.6080000   0.8690000  -4.3180000   5.5360000
  -0.5160000  -5.5700000   4.3280000  -0.6220000  -6.3310000   3.6720000
  -1.6480000  -4.7250000   4.6720000  -1.3260000  -3.6860000   4.7460000
  -2.3020000  -4.6840000   3.8010000  -2.3040000  -5.0190000   5.9700000
  -2.1230000  -6.1130000   6.4110000  -2.9680000  -4.0700000   6.6390000
  -3.0780000  -3.1470000   6.2440000  -3.5350000  -4.2220000   7.9990000
  -3.5410000  -5.2840000   8.2450000  -5.0030000  -3.7150000   8.0920000
  -5.5420000  -3.1440000   9.0480000  -2.6560000  -3.6650000   9.0560000
  -2.2800000  -2.6750000   8.8000000  -3.2670000  -3.4680000   9.9370000
  -1.3790000  -4.5080000   9.3620000  -0.6260000  -4.4890000   8.5740000
  -1.4780000  -5.5890000   9.4550000  -0.5910000  -3.8800000  10.5170000
   0.3500000  -4.5950000  10.9290000  -0.8780000  -2.7760000  10.9720000
  -5.7140000  -3.9250000   6.9800000  -5.1760000  -4.3660000   6.2490000
  -7.0230000  -3.3700000   6.7910000  -7.6240000  -3.6270000   7.6630000
  -6.9770000  -2.2940000   6.9640000  -7.7140000  -3.8080000   5.5020000
  -7.0760000  -4.1900000   4.5780000  -9.0610000  -3.5890000   5.4740000
  -9.5580000  -3.3280000   6.3140000  -9.8570000  -3.8120000   4.2800000
  -9.5970000  -4.7780000   3.8490000  -9.5760000  -2.8130000   3.1150000
  -8.9700000  -1.7340000   3.1820000 -11.3040000  -3.9050000   4.7500000
 -11.4890000  -2.9590000   5.2590000 -12.0630000  -4.0090000   3.9740000
 -11.5780000  -4.9130000   5.6960000 -11.6430000  -4.5360000   6.5770000
 -10.1860000  -3.1870000   2.0110000 -10.7220000  -4.0430000   2.0540000
  -9.6060000  -2.8610000   0.6970000 -10.2090000  -3.3780000  -0.0490000
  -9.6830000  -1.8170000   0.3920000  -8.2160000  -3.4900000   0.5100000
  -7.9520000  -4.5630000   1.0090000  -7.2800000  -2.7900000  -0.1790000
  -7.5610000  -1.9140000  -0.5950000  -5.9830000  -3.3490000  -0.6810000
  -5.6330000  -4.0850000   0.0430000  -5.3400000  -2.4700000  -0.6310000
  -6.0330000  -3.9340000  -2.1120000  -6.8860000  -4.7750000  -2.3770000
  -5.1170000  -3.4110000  -3.0090000  -4.4410000  -2.7570000  -2.6400000
  -5.0630000  -3.8250000  -4.4230000  -4.7870000  -4.8740000  -4.5320000
  -4.0800000  -2.9320000  -5.1590000  -3.6860000  -1.8920000  -4.5590000
  -6.4920000  -3.4890000  -5.0670000  -7.1670000  -4.3080000  -4.8200000
  -6.3930000  -3.5200000  -6.1520000  -7.0860000  -2.1490000  -4.5980000
  -6.7000000  -0.8650000  -4.9300000  -5.8610000  -0.6670000  -5.5810000
  -8.2430000  -2.0010000  -3.7580000  -7.4540000   0.0530000  -4.1440000
  -7.3250000   1.0540000  -4.1090000  -8.5070000  -0.6020000  -3.4620000
  -9.2880000  -2.8980000  -3.4540000  -9.2530000  -3.9130000  -3.8190000
  -9.6580000  -0.1810000  -2.7950000  -9.7670000   0.8460000  -2.4770000
 -10.4690000  -2.4440000  -2.7500000 -11.2610000  -3.1260000  -2.4750000
 -10.6230000  -1.1060000  -2.4220000 -11.4980000  -0.8030000  -1.8660000
  -3.6770000  -3.2730000  -6.4310000  -3.9560000  -4.1300000  -6.8870000
  -2.7480000  -2.4420000  -7.1750000  -3.2040000  -2.2630000  -8.1480000
  -2.7360000  -1.4640000  -6.6930000  -1.2570000  -2.8080000  -7.1020000
  -0.8700000  -3.7620000  -6.4160000  -0.4010000  -2.0400000  -7.7760000
  -0.8720000  -1.3440000  -8.3370000   1.0610000  -2.1290000  -7.9600000
   1.4180000  -2.4240000  -6.9730000   1.7780000  -0.8690000  -8.1840000
   2.5090000  -0.3350000  -7.2840000   1.3630000  -3.2560000  -9.0200000
   0.7980000  -4.1520000  -8.7660000   2.4180000  -3.5170000  -9.1080000
   0.9440000  -2.8870000 -10.3010000   1.0220000  -1.9310000 -10.2750000
   1.6600000  -0.4480000  -9.4150000   8.7130000   8.8250000   2.0960000
   9.1420000   7.5990000   2.7770000   8.7100000   6.3800000   2.1160000
   7.5910000   5.6910000   2.7750000   7.2200000   4.3800000   2.2190000
   5.8070000   3.9540000   2.5550000   4.7480000   4.6780000   1.8060000
   7.4200000   4.4320000   0.8510000   7.2150000   3.4390000   0.0890000
   6.3720000   2.6270000   0.3220000   8.0590000   3.4690000  -1.0740000
   8.1710000   2.3620000  -1.8270000   8.8900000   2.1940000  -3.0280000
   8.8130000   0.9560000  -3.5920000   9.4490000   0.6790000  -4.7530000
  10.1720000   1.6480000  -5.3730000  10.8150000   1.4100000  -6.5380000
  10.4830000   0.2150000  -7.2060000  10.2490000   2.8780000  -4.8030000
   9.6060000   3.1350000  -3.6430000   8.4466927   9.5860554   2.8442481
   9.5330132   9.2008882   1.4664871   7.8375267   8.6076062   1.4664871
  10.2408813   7.5960457   2.8265094   8.6759374   7.6058637   3.7733626
   8.4002730   6.6360282   1.0920280   9.5646075   5.6881538   2.1475409
   7.8620487   5.5436930   3.8308567   6.7140085   6.3365792   2.6197152
   7.8574983   3.6117058   2.6808657   5.7106016   2.8807062   2.3342111
   5.6544329   4.1913060   3.6182070   4.0549306   5.1518265   2.5167343
   5.2093318   5.4505823   1.1733155   4.1955479   3.9677134   1.1733155
   8.6052485   4.3849268  -1.3436121   7.6339803   1.4748354  -1.4601911
   8.2247701   0.1701355  -3.0956104   9.3812233  -0.3266568  -5.1935231
  10.2649440  -0.5698701  -6.4667907   9.5970377   0.3812949  -7.8364101
  11.3277746  -0.0995458  -7.8364101  10.8383481   3.6697676  -5.2885644
   9.6745998   4.1387039  -3.1981712
