
  315  0.0000000e+00
  -5.1000000   0.8300000   5.3900000  -4.9200000   1.0400000   4.4200000
  -5.6600000  -0.0100000   5.4100000  -5.6300000   1.5700000   5.8300000
  -3.8400000   0.4600000   6.0200000  -4.1000000   0.6000000   7.0600000
  -2.7300000   1.4300000   5.7300000  -1.6200000   1.0100000   5.2900000
  -3.4200000  -1.0500000   5.8400000  -3.0800000  -1.3200000   4.8400000
  -2.6000000  -1.0100000   6.5600000  -4.4300000  -2.0400000   6.2800000
  -4.6600000  -2.2400000   7.6400000  -4.1800000  -1.6900000   8.4400000
  -5.1700000  -2.7900000   5.3000000  -5.1800000  -2.5900000   4.2400000
  -5.5600000  -3.2100000   8.1100000  -5.7400000  -3.2300000   9.1700000
  -6.0800000  -3.8200000   5.7500000  -6.6700000  -4.4000000   5.0500000
  -6.3100000  -3.9100000   7.1400000  -7.1600000  -4.5000000   7.4500000
  -2.9200000   2.6800000   6.1400000  -3.8400000   3.0800000   6.3000000
  -1.8400000   3.6100000   6.5000000  -2.2100000   4.4200000   7.1300000
  -1.0100000   3.1300000   7.0100000  -1.1100000   4.3600000   5.3700000
  -0.5700000   5.4200000   5.6100000  -1.1800000   3.8800000   4.1400000
  -1.7600000   3.0600000   4.0700000  -0.3600000   4.2200000   3.0300000
   0.4000000   4.8400000   3.5100000  -0.9900000   5.1500000   1.9500000
  -1.9300000   5.9200000   2.2200000   0.3100000   2.9500000   2.5400000
  -0.4200000   2.2300000   2.1600000   0.9300000   3.0900000   1.6500000
   1.3200000   2.3100000   3.5100000   0.9600000   2.4500000   4.5300000
   2.2700000   2.8400000   3.4800000   1.4600000   0.8000000   3.3100000
   1.9300000   0.6700000   2.3300000   0.5100000   0.3000000   3.1600000
   2.3200000   0.1400000   4.3100000   3.2900000  -0.0800000   4.1400000
   2.0200000  -0.2700000   5.5600000   0.8700000   0.0200000   6.1400000
   0.7600000  -0.2900000   7.0900000   0.1500000   0.6400000   5.7900000
   2.9500000  -0.9400000   6.1100000   2.8100000  -1.2700000   7.0500000
   3.8900000  -0.6600000   5.8500000  -0.3800000   5.1800000   0.7700000
   0.5200000   4.7300000   0.7700000  -0.9400000   5.7300000  -0.4400000
  -0.7600000   6.8000000  -0.5600000  -2.0000000   5.5300000  -0.3400000
  -0.4900000   5.2600000  -1.8100000   0.1700000   4.1800000  -1.9000000
  -0.7300000   6.0800000  -2.8300000  -1.4800000   6.7400000  -2.7100000
  -0.1900000   5.7500000  -4.1300000  -0.3400000   4.7200000  -4.4500000
   1.3300000   6.0800000  -4.0700000   1.7700000   7.1900000  -3.8900000
  -0.7800000   6.6500000  -5.2300000  -0.7700000   7.7200000  -5.0400000
  -0.1600000   6.5600000  -6.1300000  -2.2000000   6.1200000  -5.4300000
  -2.1600000   5.0400000  -5.5500000  -2.7500000   6.4400000  -4.5400000
  -2.7600000   6.8900000  -6.5800000  -2.0900000   6.7100000  -7.4200000
  -2.8900000   7.9300000  -6.3100000  -4.2100000   6.4200000  -6.9300000
  -4.2800000   5.3400000  -6.8300000  -4.3400000   6.7300000  -7.9700000
  -5.3600000   7.0900000  -6.2000000  -6.2400000   6.8300000  -6.6300000
  -5.3600000   8.0900000  -6.3500000  -5.4500000   6.9600000  -5.2100000
   2.1300000   5.0300000  -4.2500000   1.6800000   4.1500000  -4.5000000
   3.5600000   4.9700000  -4.0800000   4.1000000   5.7900000  -4.5500000
   4.0900000   4.1800000  -4.6200000   4.1300000   5.0500000  -2.6500000
   5.0700000   4.2600000  -2.3200000   3.6000000   5.9400000  -1.7600000
   2.9800000   6.6900000  -2.0300000   4.1100000   5.9900000  -0.3700000
   3.6500000   6.8000000   0.1900000   5.1600000   6.2800000  -0.4000000
   3.7900000   4.7800000   0.5000000   2.5900000   4.6200000   0.7500000
   4.7400000   3.9600000   0.9500000   5.7000000   4.2500000   0.8500000
   4.5100000   2.5800000   1.4200000   4.9600000   2.4200000   2.4000000
   3.4300000   2.4600000   1.5400000   5.0900000   1.4300000   0.5900000
   5.0800000   0.2200000   1.0100000   5.7100000   1.7000000  -0.5400000
   5.7100000   2.6500000  -0.8500000   6.4400000   0.7200000  -1.3400000
   5.8900000  -0.2000000  -1.5000000   7.7600000   0.3000000  -0.6400000
   8.5700000   1.1500000  -0.2300000   6.8100000   1.4600000  -2.6600000
   7.5600000   2.2300000  -2.5000000   5.9500000   1.9100000  -3.1500000
   7.3800000   0.4100000  -3.6300000   6.8200000  -0.7100000  -3.5700000
   8.2200000   0.8000000  -4.4700000   7.9400000  -1.0100000  -0.4700000
   7.3200000  -1.6500000  -0.9500000   9.0200000  -1.6900000   0.2800000
   9.0300000  -2.7200000  -0.0800000  10.0200000  -1.3500000   0.0100000
   8.7900000  -1.7400000   1.8300000   9.6100000  -2.2400000   2.5600000
   7.6000000  -1.2500000   2.3100000   7.0300000  -0.8600000   1.5800000
   7.2100000  -0.9100000   3.7100000   8.0400000  -1.1900000   4.3600000
   5.9900000  -1.6900000   4.3000000   4.8400000  -1.3500000   3.9700000
   7.1300000   0.6000000   3.8100000   6.2400000   0.9900000   3.3000000
   7.1300000   0.8300000   4.8800000   8.2700000   1.4200000   3.2400000
   8.1800000   1.3600000   2.1500000   9.2200000   0.9700000   3.4900000
   8.2900000   2.8100000   3.9100000   7.4700000   3.6900000   3.5400000
   9.1500000   3.1300000   4.7800000   6.2800000  -2.6800000   5.1100000
   7.2200000  -2.7600000   5.4700000   5.1900000  -3.4400000   5.7200000
   4.6600000  -2.9200000   6.5200000   5.6100000  -4.2700000   6.3000000
   4.1900000  -4.1600000   4.7700000   4.5100000  -4.5600000   3.6900000
   2.8700000  -4.1300000   5.1700000   2.6800000  -3.9400000   6.1500000
   1.7100000  -4.4800000   4.3500000   1.7500000  -5.5700000   4.3100000
   1.7700000  -3.9600000   2.8300000   1.4500000  -4.6500000   1.8600000
   0.4000000  -3.8500000   5.0300000   0.5900000  -2.7900000   5.1800000
   0.3000000  -4.5300000   6.4000000   0.3600000  -5.6200000   6.4600000
   1.1500000  -4.3000000   7.0400000  -0.8000000  -3.9700000   4.2000000
  -0.6700000  -3.4200000   3.2700000  -1.0000000  -5.0300000   4.0300000
  -1.6800000  -3.5100000   4.6600000  -1.0000000  -4.1300000   7.2000000
  -0.8800000  -4.5000000   8.2200000  -1.0000000  -3.0500000   7.3400000
  -1.8700000  -4.5200000   6.6800000   2.3500000  -2.7600000   2.7100000
   2.8100000  -2.4100000   3.5400000   2.6600000  -2.1300000   1.3800000
   1.7500000  -1.8500000   0.8500000   3.1600000  -1.1900000   1.6300000
   3.5300000  -2.9800000   0.4600000   3.1900000  -3.1500000  -0.7500000
   4.6600000  -3.4000000   1.0000000   4.7500000  -3.3100000   2.0000000
   5.7100000  -4.1400000   0.3100000   6.7300000  -4.0500000   0.6600000
   5.6600000  -3.7400000  -0.7000000   5.3500000  -5.6100000   0.0300000
   5.7500000  -6.1200000  -1.0100000   4.5000000  -6.1300000   0.9300000
   4.3800000  -5.6600000   1.8200000   3.8100000  -7.3900000   0.8200000
   4.6000000  -8.1300000   0.6700000   3.3700000  -7.5400000   1.8100000
   2.7900000  -7.4300000  -0.2700000   2.6700000  -8.4400000  -0.9800000
   2.1400000  -6.3700000  -0.5900000   2.3700000  -5.5200000  -0.0900000
   1.3300000  -6.2800000  -1.8100000   0.9100000  -7.2500000  -2.0600000
   2.2300000  -5.9000000  -3.0200000   2.1100000  -6.5400000  -4.0600000
   0.2700000  -5.1800000  -1.4800000  -0.2600000  -4.8100000  -2.3500000
   0.7400000  -4.3300000  -1.0000000  -0.7700000  -5.7900000  -0.5900000
  -0.4000000  -6.3200000   0.2800000  -1.7100000  -4.7900000  -0.0100000
  -1.1700000  -4.0300000   0.5500000  -2.2400000  -5.2900000   0.7900000
  -2.4800000  -4.4000000  -0.6800000  -1.6500000  -6.7300000  -1.3200000
  -1.0000000  -7.5200000  -1.7000000  -2.4600000  -7.1700000  -0.7300000
  -2.0400000  -6.2400000  -2.2100000   3.0700000  -4.8900000  -2.9100000
   3.1400000  -4.3400000  -2.0600000   3.7000000  -4.3500000  -4.0800000
   4.2000000  -5.1500000  -4.6300000   4.4800000  -3.6300000  -3.8200000
   2.7400000  -3.7500000  -5.1000000   3.2400000  -3.2100000  -6.0800000
   1.4300000  -3.8500000  -4.8800000   1.1600000  -4.2400000  -3.9900000
   0.3800000  -3.6100000  -5.8300000  -0.5000000  -4.1400000  -5.4400000
   0.6500000  -3.9900000  -6.8200000   0.0700000  -2.1400000  -5.9600000
   0.3300000  -1.3700000  -5.0700000  -0.3800000  -1.5400000  -7.1300000
  -0.4100000  -2.0400000  -8.0100000  -0.3100000  -0.0800000  -7.3800000
   0.7100000   0.3100000  -7.3300000  -1.1900000   0.6700000  -6.3100000
  -2.3900000   0.7000000  -6.3800000  -0.7600000   0.2200000  -8.7800000
  -0.5900000   1.2800000  -8.9800000  -0.1700000  -0.3900000  -9.4800000
  -2.1400000  -0.0200000  -9.0200000  -2.6200000   0.1900000  -8.2200000
  -0.5600000   1.2800000  -5.2600000   0.4500000   1.2400000  -5.2900000
  -1.2500000   1.9400000  -4.1600000  -0.4900000   2.3700000  -3.5100000
  -1.8900000   2.7300000  -4.5500000  -2.1400000   1.0100000  -3.3300000
  -3.1400000   1.4900000  -2.8500000  -1.8700000  -0.3100000  -3.3400000
  -1.0100000  -0.6600000  -3.7500000  -2.8000000  -1.3600000  -2.9200000
  -2.3000000  -2.3300000  -2.9100000  -3.1400000  -1.1500000  -1.9000000
  -4.0200000  -1.4800000  -3.8300000  -4.0500000  -2.2100000  -4.8200000
  -5.0500000  -0.7900000  -3.4100000  -4.9300000  -0.1500000  -2.6400000
  -6.2800000  -0.7000000  -4.0500000  -6.4500000  -1.5000000  -4.7700000
  -6.5700000   0.6200000  -4.8900000  -7.6800000   0.9400000  -5.3200000
  -7.3900000  -0.9600000  -2.9800000  -8.3800000  -0.9600000  -3.4500000
  -7.2700000  -0.1500000  -2.2700000  -7.2200000  -2.2900000  -2.2600000
  -7.8700000  -3.4000000  -2.6500000  -8.5800000  -3.4800000  -3.4600000
  -6.4000000  -2.8100000  -1.1900000  -7.5200000  -4.5400000  -1.9600000
  -7.8900000  -5.4500000  -2.2000000  -6.6600000  -4.2000000  -0.9700000
  -5.5100000  -2.1700000  -0.3000000  -5.4400000  -1.1000000  -0.4400000
  -6.0400000  -4.9200000  -0.0100000  -6.2300000  -5.9800000   0.0700000
  -4.8300000  -2.9400000   0.7100000  -4.0800000  -2.4500000   1.3100000
  -5.1600000  -4.2400000   0.8600000  -4.5400000  -4.8000000   1.5400000
  -5.6200000   1.5500000  -4.8200000  -4.7200000   1.2100000  -4.5200000
  -5.8300000   2.9000000  -5.1000000  -6.4200000   3.0400000  -6.0100000
  -4.8500000   3.3700000  -5.1800000  -6.5200000   3.7400000  -4.0300000
  -7.5200000   4.4300000  -4.3000000  -6.1600000   3.5000000  -2.7300000
  -5.3200000   2.9600000  -2.6100000  -6.7600000   4.1100000  -1.5400000
  -7.8400000   4.2200000  -1.5600000  -6.1300000   5.5300000  -1.2300000
  -4.8600000   5.6500000  -1.1600000  -6.4700000   3.1400000  -0.3200000
  -6.6200000   3.6900000   0.6100000  -5.4300000   2.8400000  -0.4600000
  -7.3600000   1.9100000  -0.2400000  -6.9900000   0.9900000   0.4900000
  -8.4800000   1.7300000  -0.8300000  -6.8200000   6.5700000  -1.2900000
  -5.4200000   4.6590000   3.2530000  -5.5760000   3.3000000   2.9160000
  -4.5610000   2.6330000   2.2840000  -4.5640000   2.6050000   0.8930000
  -3.5510000   1.9430000   0.2130000  -2.5230000   1.3130000   0.9090000
  -1.4160000   0.5870000   0.1920000  -1.3400000  -0.6160000   0.3350000
  -0.4500000   1.2620000  -0.7040000   0.4140000   0.5440000  -1.5210000
   1.3090000   1.1950000  -2.3390000   1.3560000   2.5800000  -2.3570000
   0.4870000   3.3130000  -1.5610000  -0.4350000   2.6630000  -0.7440000
  -2.5300000   1.3390000   2.2990000  -1.5320000   0.7130000   2.9720000
  -3.5470000   1.9930000   2.9750000  -5.4076905   4.7662347   4.3476914
  -4.4729674   5.0335057   2.8372179  -6.2575384   5.2383571   2.8372179
  -5.3673629   3.1063652   0.3333207  -3.5606057   1.9159192  -0.8866246
   0.3825252  -0.5555279  -1.5140888   1.9887697   0.6146147  -2.9801444
   2.0814481   3.0978449  -3.0016408   0.5265410   4.4121952  -1.5753667
  -1.1444977   3.2435373  -0.1360613  -1.5212693   0.7214942   3.9619054
  -3.5486246   2.0037620   4.0749462
