%VERSION  VERSION_STAMP = V0001.000  DATE = 10/06/26  00:42:51
%FLAG TITLE
%FORMAT(20a4)

%FLAG POINTERS
%FORMAT(10I8)
     286      20     133     155     306     202     600     447       0       0
    1518      25     155     202     447      23      35     788       1       0
       0       0       0       0       0       0       0       0      24       0
       0
%FLAG ATOM_NAME
%FORMAT(20a4)
N   H   H2  H3  CA  HA  C   O   CB  HB2 HB3 CG  CD1 HD1 CD2 HD2 CE1 HE1 CE2 HE2 
CZ  HZ  N   H   CA  HA2 HA3 C   O   N   H   CA  HA  C   O   CB  HB2 HB3 CG  HG2 
HG3 CD  HD2 HD3 NE  HE  CZ  NH1 HH11HH12NH2 HH21HH22N   H   CA  HA2 HA3 C   O   
N   H   CA  HA  C   O   CB  HB2 HB3 CG  HG2 HG3 CD  HD2 HD3 CE  HE2 HE3 NZ  HZ1 
HZ2 HZ3 N   H   CA  HA2 HA3 C   O   N   H   CA  HA2 HA3 C   O   N   H   CA  HA2 
HA3 C   O   N   H   CA  HA  C   O   CB  HB2 HB3 CG  OD1 OD2 N   H   CA  HA2 HA3 
C   O   N   H   CA  HA  C   O   CB  HB2 HB3 CG  HG2 HG3 CD  OE1 OE2 N   H   CA  
HA2 HA3 C   O   N   H   CA  HA  C   O   CB  HB  CG1 HG12HG13CG2 HG21HG22HG23CD1 
HD11HD12HD13N   H   CA  HA2 HA3 C   O   N   H   CA  HA2 HA3 C   O   N   H   CA  
HA2 HA3 C   O   N   H   CA  HA  C   O   CB  HB2 HB3 CG  HG  CD1 HD11HD12HD13CD2 
HD21HD22HD23N   H   CA  HA2 HA3 C   O   N   H   CA  HA2 HA3 C   O   N   H   CA  
HA  C   O   CB  HB2 HB3 OG  HG  N   H   CA  HA2 HA3 C   O   N   H   CA  HA2 HA3 
C   O   N   H   CA  HA  C   O   CB  HB2 HB3 CG  CD1 HD1 CD2 NE1 HE1 CE2 CE3 HE3 
CZ2 HZ2 CZ3 HZ3 CH2 HH2 N   H   CA  HA2 HA3 C   O   N   H   CA  HA  C   O   CB  
HB2 HB3 CG  OD1 OD2 OXT 
%FLAG CHARGE
%FORMAT(5E16.8)
  3.16521351E+00  3.50050383E+00  3.50050383E+00  3.50050383E+00  1.33569459E+00
  1.89694143E+00  1.11575143E+01 -1.04104000E+01  6.01335900E-01  1.89511920E-01
  1.89511920E-01  5.64891300E-02 -2.53654416E+00  2.50374402E+00 -2.53472193E+00
  2.50374402E+00 -2.91921246E+00  2.61125559E+00 -2.92103469E+00  2.61125559E+00
 -2.20125384E+00  2.42174367E+00 -7.57501011E+00  4.95464337E+00 -4.59201960E-01
  1.27191654E+00  1.27191654E+00  1.08841798E+01 -1.03484442E+01 -6.33953817E+00
  5.00566581E+00 -4.80522051E+00  2.84267880E+00  1.33769904E+01 -1.07402236E+01
 -1.27556100E-02  5.95869210E-01  5.95869210E-01  7.10669700E-01  5.19335550E-01
  5.19335550E-01  8.85603780E-01  1.25187201E+00  1.25187201E+00 -9.64870785E+00
  6.29762688E+00  1.47163295E+01 -1.57203782E+01  8.15994594E+00  8.15994594E+00
 -1.57203782E+01  8.15994594E+00  8.15994594E+00 -7.57501011E+00  4.95464337E+00
 -4.59201960E-01  1.27191654E+00  1.27191654E+00  1.08841798E+01 -1.03484442E+01
 -6.33953817E+00  5.00566581E+00 -4.37335200E+00  2.59849998E+00  1.33769904E+01
 -1.07402236E+01 -1.71289620E-01  6.59647260E-01  6.59647260E-01  3.40757010E-01
  1.87689690E-01  1.87689690E-01 -8.72848170E-01  1.13160483E+00  1.13160483E+00
 -2.60578890E-01  2.06823105E+00  2.06823105E+00 -7.02287442E+00  6.19558200E+00
  6.19558200E+00  6.19558200E+00 -7.57501011E+00  4.95464337E+00 -4.59201960E-01
  1.27191654E+00  1.27191654E+00  1.08841798E+01 -1.03484442E+01 -7.57501011E+00
  4.95464337E+00 -4.59201960E-01  1.27191654E+00  1.27191654E+00  1.08841798E+01
 -1.03484442E+01 -7.57501011E+00  4.95464337E+00 -4.59201960E-01  1.27191654E+00
  1.27191654E+00  1.08841798E+01 -1.03484442E+01 -9.40817349E+00  5.35006728E+00
  6.94269630E-01  1.60356240E+00  9.77808618E+00 -1.06035564E+01 -5.52135690E-01
 -2.22312060E-01 -2.22312060E-01  1.45669066E+01 -1.46033512E+01 -1.46033512E+01
 -7.57501011E+00  4.95464337E+00 -4.59201960E-01  1.27191654E+00  1.27191654E+00
  1.08841798E+01 -1.03484442E+01 -9.40817349E+00  5.35006728E+00  7.23425310E-01
  2.01356415E+00  9.77808618E+00 -1.06035564E+01  1.02044880E+00 -3.15245790E-01
 -3.15245790E-01  2.47823280E-01 -7.74447750E-01 -7.74447750E-01  1.46762404E+01
 -1.49204192E+01 -1.49204192E+01 -7.57501011E+00  4.95464337E+00 -4.59201960E-01
  1.27191654E+00  1.27191654E+00  1.08841798E+01 -1.03484442E+01 -7.57501011E+00
  4.95464337E+00 -1.08787131E+00  1.58351787E+00  1.08841798E+01 -1.03484442E+01
  2.37436569E+00  3.40757010E-01 -7.83558900E-01  4.30046280E-01  4.30046280E-01
 -5.83842492E+00  1.60720686E+00  1.60720686E+00  1.60720686E+00 -1.20267180E+00
  3.38934780E-01  3.38934780E-01  3.38934780E-01 -7.57501011E+00  4.95464337E+00
 -4.59201960E-01  1.27191654E+00  1.27191654E+00  1.08841798E+01 -1.03484442E+01
 -7.57501011E+00  4.95464337E+00 -4.59201960E-01  1.27191654E+00  1.27191654E+00
  1.08841798E+01 -1.03484442E+01 -7.57501011E+00  4.95464337E+00 -4.59201960E-01
  1.27191654E+00  1.27191654E+00  1.08841798E+01 -1.03484442E+01 -7.57501011E+00
  4.95464337E+00 -9.43915140E-01  1.68009606E+00  1.08841798E+01 -1.03484442E+01
 -2.00809746E+00  8.32759110E-01  8.32759110E-01  6.43429413E+00 -6.57825030E-01
 -7.50940983E+00  1.82223000E+00  1.82223000E+00  1.82223000E+00 -7.50940983E+00
  1.82223000E+00  1.82223000E+00  1.82223000E+00 -7.57501011E+00  4.95464337E+00
 -4.59201960E-01  1.27191654E+00  1.27191654E+00  1.08841798E+01 -1.03484442E+01
 -7.57501011E+00  4.95464337E+00 -4.59201960E-01  1.27191654E+00  1.27191654E+00
  1.08841798E+01 -1.03484442E+01 -7.57501011E+00  4.95464337E+00 -4.53735270E-01
  1.53613989E+00  1.08841798E+01 -1.03484442E+01  3.85766091E+00  6.41424960E-01
  6.41424960E-01 -1.19283176E+01  7.79003325E+00 -7.57501011E+00  4.95464337E+00
 -4.59201960E-01  1.27191654E+00  1.27191654E+00  1.08841798E+01 -1.03484442E+01
 -7.57501011E+00  4.95464337E+00 -4.59201960E-01  1.27191654E+00  1.27191654E+00
  1.08841798E+01 -1.03484442E+01 -7.57501011E+00  4.95464337E+00 -5.01113250E-01
  2.04636429E+00  1.08841798E+01 -1.03484442E+01 -9.11115000E-02  6.17735970E-01
  6.17735970E-01 -2.57845545E+00 -2.98481274E+00  3.75743826E+00  2.26503189E+00
 -6.22838214E+00  6.21744876E+00  2.51467740E+00 -4.34966301E+00  3.09779100E+00
 -4.73962023E+00  2.86454556E+00 -3.59343756E+00  2.63676681E+00 -2.06640882E+00
  2.58209991E+00 -7.57501011E+00  4.95464337E+00 -4.59201960E-01  1.27191654E+00
  1.27191654E+00  1.08841798E+01 -1.03484442E+01 -9.46101816E+00  5.56691265E+00
 -3.31099191E+00  1.90605258E+00  1.32221009E+01 -1.43719280E+01 -1.23364971E+00
 -3.86312760E-01 -3.86312760E-01  1.61285577E+01 -1.48730413E+01 -1.48730413E+01
 -1.43719280E+01
%FLAG ATOMIC_NUMBER
%FORMAT(10I8)
       7       1       1       1       6       1       6       8       6       1
       1       6       6       1       6       1       6       1       6       1
       6       1       7       1       6       1       1       6       8       7
       1       6       1       6       8       6       1       1       6       1
       1       6       1       1       7       1       6       7       1       1
       7       1       1       7       1       6       1       1       6       8
       7       1       6       1       6       8       6       1       1       6
       1       1       6       1       1       6       1       1       7       1
       1       1       7       1       6       1       1       6       8       7
       1       6       1       1       6       8       7       1       6       1
       1       6       8       7       1       6       1       6       8       6
       1       1       6       8       8       7       1       6       1       1
       6       8       7       1       6       1       6       8       6       1
       1       6       1       1       6       8       8       7       1       6
       1       1       6       8       7       1       6       1       6       8
       6       1       6       1       1       6       1       1       1       6
       1       1       1       7       1       6       1       1       6       8
       7       1       6       1       1       6       8       7       1       6
       1       1       6       8       7       1       6       1       6       8
       6       1       1       6       1       6       1       1       1       6
       1       1       1       7       1       6       1       1       6       8
       7       1       6       1       1       6       8       7       1       6
       1       6       8       6       1       1       8       1       7       1
       6       1       1       6       8       7       1       6       1       1
       6       8       7       1       6       1       6       8       6       1
       1       6       6       1       6       7       1       6       6       1
       6       1       6       1       6       1       7       1       6       1
       1       6       8       7       1       6       1       6       8       6
       1       1       6       8       8       8
%FLAG MASS
%FORMAT(5E16.8)
  1.40067200E+01  1.00794700E+00  1.00794700E+00  1.00794700E+00  1.20107800E+01
  1.00794700E+00  1.20107800E+01  1.59994300E+01  1.20107800E+01  1.00794700E+00
  1.00794700E+00  1.20107800E+01  1.20107800E+01  1.00794700E+00  1.20107800E+01
  1.00794700E+00  1.20107800E+01  1.00794700E+00  1.20107800E+01  1.00794700E+00
  1.20107800E+01  1.00794700E+00  1.40067200E+01  1.00794700E+00  1.20107800E+01
  1.00794700E+00  1.00794700E+00  1.20107800E+01  1.59994300E+01  1.40067200E+01
  1.00794700E+00  1.20107800E+01  1.00794700E+00  1.20107800E+01  1.59994300E+01
  1.20107800E+01  1.00794700E+00  1.00794700E+00  1.20107800E+01  1.00794700E+00
  1.00794700E+00  1.20107800E+01  1.00794700E+00  1.00794700E+00  1.40067200E+01
  1.00794700E+00  1.20107800E+01  1.40067200E+01  1.00794700E+00  1.00794700E+00
  1.40067200E+01  1.00794700E+00  1.00794700E+00  1.40067200E+01  1.00794700E+00
  1.20107800E+01  1.00794700E+00  1.00794700E+00  1.20107800E+01  1.59994300E+01
  1.40067200E+01  1.00794700E+00  1.20107800E+01  1.00794700E+00  1.20107800E+01
  1.59994300E+01  1.20107800E+01  1.00794700E+00  1.00794700E+00  1.20107800E+01
  1.00794700E+00  1.00794700E+00  1.20107800E+01  1.00794700E+00  1.00794700E+00
  1.20107800E+01  1.00794700E+00  1.00794700E+00  1.40067200E+01  1.00794700E+00
  1.00794700E+00  1.00794700E+00  1.40067200E+01  1.00794700E+00  1.20107800E+01
  1.00794700E+00  1.00794700E+00  1.20107800E+01  1.59994300E+01  1.40067200E+01
  1.00794700E+00  1.20107800E+01  1.00794700E+00  1.00794700E+00  1.20107800E+01
  1.59994300E+01  1.40067200E+01  1.00794700E+00  1.20107800E+01  1.00794700E+00
  1.00794700E+00  1.20107800E+01  1.59994300E+01  1.40067200E+01  1.00794700E+00
  1.20107800E+01  1.00794700E+00  1.20107800E+01  1.59994300E+01  1.20107800E+01
  1.00794700E+00  1.00794700E+00  1.20107800E+01  1.59994300E+01  1.59994300E+01
  1.40067200E+01  1.00794700E+00  1.20107800E+01  1.00794700E+00  1.00794700E+00
  1.20107800E+01  1.59994300E+01  1.40067200E+01  1.00794700E+00  1.20107800E+01
  1.00794700E+00  1.20107800E+01  1.59994300E+01  1.20107800E+01  1.00794700E+00
  1.00794700E+00  1.20107800E+01  1.00794700E+00  1.00794700E+00  1.20107800E+01
  1.59994300E+01  1.59994300E+01  1.40067200E+01  1.00794700E+00  1.20107800E+01
  1.00794700E+00  1.00794700E+00  1.20107800E+01  1.59994300E+01  1.40067200E+01
  1.00794700E+00  1.20107800E+01  1.00794700E+00  1.20107800E+01  1.59994300E+01
  1.20107800E+01  1.00794700E+00  1.20107800E+01  1.00794700E+00  1.00794700E+00
  1.20107800E+01  1.00794700E+00  1.00794700E+00  1.00794700E+00  1.20107800E+01
  1.00794700E+00  1.00794700E+00  1.00794700E+00  1.40067200E+01  1.00794700E+00
  1.20107800E+01  1.00794700E+00  1.00794700E+00  1.20107800E+01  1.59994300E+01
  1.40067200E+01  1.00794700E+00  1.20107800E+01  1.00794700E+00  1.00794700E+00
  1.20107800E+01  1.59994300E+01  1.40067200E+01  1.00794700E+00  1.20107800E+01
  1.00794700E+00  1.00794700E+00  1.20107800E+01  1.59994300E+01  1.40067200E+01
  1.00794700E+00  1.20107800E+01  1.00794700E+00  1.20107800E+01  1.59994300E+01
  1.20107800E+01  1.00794700E+00  1.00794700E+00  1.20107800E+01  1.00794700E+00
  1.20107800E+01  1.00794700E+00  1.00794700E+00  1.00794700E+00  1.20107800E+01
  1.00794700E+00  1.00794700E+00  1.00794700E+00  1.40067200E+01  1.00794700E+00
  1.20107800E+01  1.00794700E+00  1.00794700E+00  1.20107800E+01  1.59994300E+01
  1.40067200E+01  1.00794700E+00  1.20107800E+01  1.00794700E+00  1.00794700E+00
  1.20107800E+01  1.59994300E+01  1.40067200E+01  1.00794700E+00  1.20107800E+01
  1.00794700E+00  1.20107800E+01  1.59994300E+01  1.20107800E+01  1.00794700E+00
  1.00794700E+00  1.59994300E+01  1.00794700E+00  1.40067200E+01  1.00794700E+00
  1.20107800E+01  1.00794700E+00  1.00794700E+00  1.20107800E+01  1.59994300E+01
  1.40067200E+01  1.00794700E+00  1.20107800E+01  1.00794700E+00  1.00794700E+00
  1.20107800E+01  1.59994300E+01  1.40067200E+01  1.00794700E+00  1.20107800E+01
  1.00794700E+00  1.20107800E+01  1.59994300E+01  1.20107800E+01  1.00794700E+00
  1.00794700E+00  1.20107800E+01  1.20107800E+01  1.00794700E+00  1.20107800E+01
  1.40067200E+01  1.00794700E+00  1.20107800E+01  1.20107800E+01  1.00794700E+00
  1.20107800E+01  1.00794700E+00  1.20107800E+01  1.00794700E+00  1.20107800E+01
  1.00794700E+00  1.40067200E+01  1.00794700E+00  1.20107800E+01  1.00794700E+00
  1.00794700E+00  1.20107800E+01  1.59994300E+01  1.40067200E+01  1.00794700E+00
  1.20107800E+01  1.00794700E+00  1.20107800E+01  1.59994300E+01  1.20107800E+01
  1.00794700E+00  1.00794700E+00  1.20107800E+01  1.59994300E+01  1.59994300E+01
  1.59994300E+01
%FLAG ATOM_TYPE_INDEX
%FORMAT(10I8)
       1       2       2       2       3       4       5       6       3       7
       7       5       5       8       5       8       5       8       5       8
       5       8       1       2       3       9       9       5       6       1
       2       3       9       5       6       3       7       7       3       7
       7       3       9       9       1       2       5       1       2       2
       1       2       2       1       2       3       9       9       5       6
       1       2       3       9       5       6       3       7       7       3
       7       7       3       7       7       3       4       4       1       2
       2       2       1       2       3       9       9       5       6       1
       2       3       9       9       5       6       1       2       3       9
       9       5       6       1       2       3       9       5       6       3
       7       7       5       6       6       1       2       3       9       9
       5       6       1       2       3       9       5       6       3       7
       7       3       7       7       5       6       6       1       2       3
       9       9       5       6       1       2       3       9       5       6
       3       7       3       7       7       3       7       7       7       3
       7       7       7       1       2       3       9       9       5       6
       1       2       3       9       9       5       6       1       2       3
       9       9       5       6       1       2       3       9       5       6
       3       7       7       3       7       3       7       7       7       3
       7       7       7       1       2       3       9       9       5       6
       1       2       3       9       9       5       6       1       2       3
       9       5       6       3       9       9      10      11       1       2
       3       9       9       5       6       1       2       3       9       9
       5       6       1       2       3       9       5       6       3       7
       7       5       5      12       5       1       2       5       5       8
       5       8       5       8       5       8       1       2       3       9
       9       5       6       1       2       3       9       5       6       3
       7       7       5       6       6       6
%FLAG NUMBER_EXCLUDED_ATOMS
%FORMAT(10I8)
      12       6       5       4      12       7      11       4      10       4
       3       9       8       4       6       3       5       3       3       2
       1       1       7       4       7       4       3       7       3      10
       4      13       7      11       4      10       5       4       8       5
       4       7       4       3       8       3       6       5       2       1
       2       1       1       7       4       7       4       3       7       3
      10       4      13       7      11       4      10       5       4       9
       5       4       9       5       4       6       5       4       3       2
       1       1       7       4       7       4       3       7       3       7
       4       7       4       3       7       3       7       4       7       4
       3       7       3      10       4      12       7      11       4       6
       4       3       2       1       1       7       4       7       4       3
       7       3      10       4      13       7      11       4       9       5
       4       5       4       3       2       1       1       7       4       7
       4       3       7       3      10       4      16       7      11       4
      13       8      10       6       5       4       2       1       1       3
       2       1       1       7       4       7       4       3       7       3
       7       4       7       4       3       7       3       7       4       7
       4       3       7       3      10       4      13       7      11       4
      13       5       4       9       8       7       3       2       1       3
       2       1       1       7       4       7       4       3       7       3
       7       4       7       4       3       7       3      10       4      11
       7      11       4       5       3       2       1       1       7       4
       7       4       3       7       3       7       4       7       4       3
       7       3      10       4      12       7      11       4      10       4
       3      10       7       4      10       6       2       7       6       3
       5       3       3       2       1       1       7       4       7       4
       3       7       3      10       4      10       7       6       2       6
       4       3       2       1       1       1
%FLAG NONBONDED_PARM_INDEX
%FORMAT(10I8)
       1       2       4       7      11      16      22      29      37      46
      56      67      79      92     106     121     137     154     172     191
       2       3       5       8      12      17      23      30      38      47
      57      68      80      93     107     122     138     155     173     192
       4       5       6       9      13      18      24      31      39      48
      58      69      81      94     108     123     139     156     174     193
       7       8       9      10      14      19      25      32      40      49
      59      70      82      95     109     124     140     157     175     194
      11      12      13      14      15      20      26      33      41      50
      60      71      83      96     110     125     141     158     176     195
      16      17      18      19      20      21      27      34      42      51
      61      72      84      97     111     126     142     159     177     196
      22      23      24      25      26      27      28      35      43      52
      62      73      85      98     112     127     143     160     178     197
      29      30      31      32      33      34      35      36      44      53
      63      74      86      99     113     128     144     161     179     198
      37      38      39      40      41      42      43      44      45      54
      64      75      87     100     114     129     145     162     180     199
      46      47      48      49      50      51      52      53      54      55
      65      76      88     101     115     130     146     163     181     200
      56      57      58      59      60      61      62      63      64      65
      66      77      89     102     116     131     147     164     182     201
      67      68      69      70      71      72      73      74      75      76
      77      78      90     103     117     132     148     165     183     202
      79      80      81      82      83      84      85      86      87      88
      89      90      91     104     118     133     149     166     184     203
      92      93      94      95      96      97      98      99     100     101
     102     103     104     105     119     134     150     167     185     204
     106     107     108     109     110     111     112     113     114     115
     116     117     118     119     120     135     151     168     186     205
     121     122     123     124     125     126     127     128     129     130
     131     132     133     134     135     136     152     169     187     206
     137     138     139     140     141     142     143     144     145     146
     147     148     149     150     151     152     153     170     188     207
     154     155     156     157     158     159     160     161     162     163
     164     165     166     167     168     169     170     171     189     208
     172     173     174     175     176     177     178     179     180     181
     182     183     184     185     186     187     188     189     190     209
     191     192     193     194     195     196     197     198     199     200
     201     202     203     204     205     206     207     208     209     210
%FLAG RESIDUE_LABEL
%FORMAT(20a4)
PHE GLY ARG GLY LYS GLY GLY GLY ASP GLY GLU GLY ILE GLY GLY GLY LEU GLY GLY SER 
GLY GLY TRP GLY ASP 
%FLAG RESIDUE_POINTER
%FORMAT(10I8)
       1      23      30      54      61      83      90      97     104     116
     123     138     145     164     171     178     185     204     211     218
     229     236     243     267     274
%FLAG BOND_FORCE_CONSTANT
%FORMAT(5E16.8)
  3.17000000E+02  5.70000000E+02  3.10000000E+02  3.40000000E+02  3.67000000E+02
  3.17000000E+02  4.69000000E+02  3.67000000E+02  4.34000000E+02  4.90000000E+02
  3.37000000E+02  3.37000000E+02  4.81000000E+02  6.56000000E+02  3.20000000E+02
  5.53000000E+02  3.17000000E+02  5.46000000E+02  4.27000000E+02  4.47000000E+02
  4.69000000E+02  3.88000000E+02  4.28000000E+02
%FLAG BOND_EQUIL_VALUE
%FORMAT(5E16.8)
  1.52200000E+00  1.22900000E+00  1.52600000E+00  1.09000000E+00  1.47100000E+00
  1.51000000E+00  1.40000000E+00  1.08000000E+00  1.01000000E+00  1.33500000E+00
  1.44900000E+00  1.46300000E+00  1.34000000E+00  1.25000000E+00  1.41000000E+00
  9.60000000E-01  1.49500000E+00  1.35200000E+00  1.38100000E+00  1.41900000E+00
  1.40400000E+00  1.45900000E+00  1.38000000E+00
%FLAG ANGLE_FORCE_CONSTANT
%FORMAT(5E16.8)
  5.00000000E+01  8.00000000E+01  3.50000000E+01  8.00000000E+01  7.00000000E+01
  6.30000000E+01  6.30000000E+01  5.00000000E+01  5.00000000E+01  8.00000000E+01
  7.00000000E+01  6.30000000E+01  6.30000000E+01  5.00000000E+01  8.00000000E+01
  4.00000000E+01  5.00000000E+01  5.00000000E+01  3.50000000E+01  7.00000000E+01
  8.00000000E+01  5.50000000E+01  6.30000000E+01  7.00000000E+01  7.00000000E+01
  7.00000000E+01  6.30000000E+01  6.30000000E+01  6.30000000E+01  7.00000000E+01
  7.00000000E+01  6.30000000E+01  7.00000000E+01  5.00000000E+01  6.30000000E+01
%FLAG ANGLE_EQUIL_VALUE
%FORMAT(5E16.8)
  1.91113553E+00  1.94080613E+00  1.91113553E+00  2.10137642E+00  2.03505391E+00
  1.98967535E+00  1.93906080E+00  2.09439510E+00  2.12755636E+00  2.14500965E+00
  2.09439510E+00  2.09439510E+00  1.92160751E+00  2.06018665E+00  1.91462619E+00
  1.91113553E+00  2.06646983E+00  2.15024564E+00  2.09439510E+00  2.04203522E+00
  2.19911486E+00  1.89368224E+00  2.01760062E+00  2.18166156E+00  2.24449342E+00
  1.89717290E+00  1.89891823E+00  2.35444916E+00  1.85703032E+00  1.94778745E+00
  1.82212374E+00  2.14151899E+00  2.31779725E+00  2.14850031E+00  2.02807259E+00
%FLAG DIHEDRAL_FORCE_CONSTANT
%FORMAT(5E16.8)
  1.92000000E-01  2.90000000E-01  1.20000000E-02  6.90000000E-02  4.69000000E-01
  5.50000000E-02  2.70000000E-01  2.00000000E+00  2.00000000E-01  2.00000000E-01
  3.62500000E+00  1.58000000E+00  4.50000000E-01  8.00000000E-02  1.80000000E+00
  2.50000000E-01  2.00000000E-01  5.80000000E-02  6.47000000E-01  2.15400000E+00
  7.69000000E-01  4.59000000E-01  4.24000000E-01  1.44000000E-01  1.84000000E-01
  1.00000000E-01  6.08000000E-01  2.22000000E-01  1.36700000E+00  3.93000000E-01
  4.21000000E-01  3.90000000E-01  1.13000000E-01  1.44000000E-01  3.10000000E-01
  1.48000000E-01  2.16000000E-01  3.37000000E-01  1.07000000E-01  5.30000000E-02
  4.47000000E-01  7.35000000E-01  1.62000000E-01  2.89000000E-01  4.06000000E-01
  7.70000000E-02  2.02000000E-01  2.59000000E-01  9.80000000E-02  1.42000000E-01
  2.70000000E-02  3.79000000E-01  6.20000000E-01  7.06000000E-01  4.01000000E-01
  2.46000000E-01  6.66000000E-01  2.67000000E-01  4.44000000E-01  2.11000000E-01
  2.18000000E-01  6.61000000E-01  2.34000000E-01  3.13000000E-01  7.90000000E-02
  8.19000000E-01  4.08000000E-01  3.65000000E-01  3.53000000E-01  1.70000000E-02
  6.52500000E+00  1.67500000E+00  1.50000000E+00  3.00000000E+00  1.52500000E+00
  1.00000000E+00  1.05000000E+01  1.10000000E+00  1.55555556E-01  1.55555556E-01
  7.00000000E-03  1.55555556E-01  1.55555556E-01  1.55555556E-01  1.55555556E-01
  1.55555556E-01  1.55555556E-01  1.55555556E-01  1.55555556E-01  1.55555556E-01
  2.50000000E+00  2.50000000E+00  4.80000000E-02  4.80000000E-02  1.55555556E-01
  1.55555556E-01  1.55555556E-01  1.55555556E-01  1.55555556E-01  1.20000000E-02
  4.20000000E-01  2.50000000E+00  2.50000000E+00  4.00000000E-01  3.62500000E+00
  3.62500000E+00  3.62500000E+00  3.62500000E+00  3.62500000E+00  3.62500000E+00
  3.62500000E+00  3.62500000E+00  3.62500000E+00  3.62500000E+00  3.62500000E+00
  3.62500000E+00  3.62500000E+00  3.62500000E+00  3.62500000E+00  3.62500000E+00
  3.62500000E+00  3.62500000E+00  3.62500000E+00  3.62500000E+00  3.62500000E+00
  5.50000000E-01  2.50000000E+00  2.50000000E+00  8.00000000E-01  8.00000000E-01
  4.20000000E-01  8.00000000E-01  2.50000000E+00  2.50000000E+00  5.50000000E-01
  1.55555556E-01  1.55555556E-01  1.55555556E-01  2.50000000E+00  2.50000000E+00
  1.60000000E-01  1.60000000E-01  1.80000000E-01  8.00000000E-01  1.55555556E-01
  1.55555556E-01  1.55555556E-01  1.55555556E-01  1.55555556E-01  1.55555556E-01
  4.20000000E-01  2.50000000E+00  2.50000000E+00  4.00000000E-01  1.55555556E-01
  1.55555556E-01  1.55555556E-01  1.50000000E-01  1.50000000E-01  1.60000000E-01
  1.50000000E-01  1.50000000E-01  1.60000000E-01  1.55555556E-01  1.55555556E-01
  1.55555556E-01  1.55555556E-01  1.55555556E-01  1.55555556E-01  2.40000000E+00
  2.40000000E+00  2.40000000E+00  2.40000000E+00  2.40000000E+00  2.40000000E+00
  2.40000000E+00  2.40000000E+00  2.40000000E+00  2.40000000E+00  2.40000000E+00
  2.40000000E+00  5.50000000E-01  2.50000000E+00  2.50000000E+00  8.00000000E-01
  8.00000000E-01  4.20000000E-01  8.00000000E-01  2.50000000E+00  2.50000000E+00
  5.50000000E-01  1.55555556E-01  1.55555556E-01  1.55555556E-01  2.50000000E+00
  2.50000000E+00  1.60000000E-01  1.60000000E-01  1.80000000E-01  8.00000000E-01
  1.55555556E-01  1.55555556E-01  1.55555556E-01  1.55555556E-01  1.55555556E-01
  1.55555556E-01  4.20000000E-01  2.50000000E+00  2.50000000E+00  4.00000000E-01
  1.60000000E-01  1.60000000E-01  1.80000000E-01  1.50000000E-01  1.50000000E-01
  1.60000000E-01  1.50000000E-01  1.50000000E-01  1.60000000E-01  1.55555556E-01
  1.55555556E-01  1.55555556E-01  1.50000000E-01  1.50000000E-01  1.60000000E-01
  1.50000000E-01  1.50000000E-01  1.60000000E-01  1.55555556E-01  1.55555556E-01
  1.55555556E-01  1.55555556E-01  1.55555556E-01  1.55555556E-01  1.55555556E-01
  1.55555556E-01  1.55555556E-01  1.55555556E-01  1.55555556E-01  1.55555556E-01
  1.55555556E-01  1.55555556E-01  1.55555556E-01  5.50000000E-01  2.50000000E+00
  2.50000000E+00  8.00000000E-01  8.00000000E-01  4.20000000E-01  2.50000000E+00
  2.50000000E+00  5.50000000E-01  2.50000000E+00  2.50000000E+00  8.00000000E-01
  8.00000000E-01  4.20000000E-01  2.50000000E+00  2.50000000E+00  5.50000000E-01
  2.50000000E+00  2.50000000E+00  8.00000000E-01  8.00000000E-01  4.20000000E-01
  8.00000000E-01  2.50000000E+00  2.50000000E+00  5.50000000E-01  1.55555556E-01
  1.55555556E-01  8.90000000E-02  2.50000000E+00  2.50000000E+00  3.10000000E-02
  3.10000000E-02  8.00000000E-01  1.55555556E-01  1.55555556E-01  1.55555556E-01
  1.55555556E-01  1.55555556E-01  1.54000000E-01  4.20000000E-01  2.50000000E+00
  2.50000000E+00  4.00000000E-01  5.50000000E-01  2.50000000E+00  2.50000000E+00
  8.00000000E-01  8.00000000E-01  4.20000000E-01  8.00000000E-01  2.50000000E+00
  2.50000000E+00  5.50000000E-01  1.55555556E-01  1.55555556E-01  7.80000000E-02
  2.50000000E+00  2.50000000E+00  1.60000000E-01  1.60000000E-01  5.60000000E-02
  8.00000000E-01  1.55555556E-01  1.55555556E-01  1.55555556E-01  1.55555556E-01
  1.55555556E-01  1.45000000E-01  4.20000000E-01  2.50000000E+00  2.50000000E+00
  4.00000000E-01  6.40000000E-02  6.40000000E-02  1.50000000E-01  1.50000000E-01
  1.55555556E-01  1.50000000E-01  1.50000000E-01  1.55555556E-01  5.50000000E-01
  2.50000000E+00  2.50000000E+00  8.00000000E-01  8.00000000E-01  4.20000000E-01
  8.00000000E-01  2.50000000E+00  2.50000000E+00  5.50000000E-01  1.55555556E-01
  9.70000000E-02  1.00000000E-03  2.50000000E+00  2.50000000E+00  1.60000000E-01
  1.60000000E-01  2.30000000E-01  1.60000000E-01  1.60000000E-01  1.60000000E-01
  8.00000000E-01  1.55555556E-01  1.55555556E-01  1.55555556E-01  1.55555556E-01
  1.15000000E-01  1.12000000E-01  4.20000000E-01  2.50000000E+00  2.50000000E+00
  4.00000000E-01  1.60000000E-01  1.60000000E-01  1.60000000E-01  1.50000000E-01
  1.50000000E-01  1.60000000E-01  1.50000000E-01  1.50000000E-01  1.50000000E-01
  1.60000000E-01  1.60000000E-01  1.60000000E-01  1.60000000E-01  1.50000000E-01
  1.50000000E-01  1.50000000E-01  1.60000000E-01  1.50000000E-01  1.50000000E-01
  1.50000000E-01  2.24000000E-01  5.50000000E-01  2.50000000E+00  2.50000000E+00
  8.00000000E-01  8.00000000E-01  4.20000000E-01  2.50000000E+00  2.50000000E+00
  5.50000000E-01  2.50000000E+00  2.50000000E+00  8.00000000E-01  8.00000000E-01
  4.20000000E-01  2.50000000E+00  2.50000000E+00  5.50000000E-01  2.50000000E+00
  2.50000000E+00  8.00000000E-01  8.00000000E-01  4.20000000E-01  8.00000000E-01
  2.50000000E+00  2.50000000E+00  5.50000000E-01  1.55555556E-01  1.55555556E-01
  7.30000000E-02  2.50000000E+00  2.50000000E+00  1.60000000E-01  1.79000000E-01
  1.79000000E-01  8.00000000E-01  1.55555556E-01  1.55555556E-01  1.55555556E-01
  1.55555556E-01  1.55555556E-01  1.90000000E-01  4.20000000E-01  2.50000000E+00
  2.50000000E+00  4.00000000E-01  1.60000000E-01  1.60000000E-01  1.60000000E-01
  1.60000000E-01  1.60000000E-01  1.60000000E-01  1.50000000E-01  1.60000000E-01
  1.60000000E-01  1.50000000E-01  1.60000000E-01  1.60000000E-01  1.50000000E-01
  1.50000000E-01  1.50000000E-01  1.50000000E-01  1.50000000E-01  1.50000000E-01
  1.60000000E-01  1.60000000E-01  1.60000000E-01  1.60000000E-01  1.60000000E-01
  1.60000000E-01  5.50000000E-01  2.50000000E+00  2.50000000E+00  8.00000000E-01
  8.00000000E-01  4.20000000E-01  2.50000000E+00  2.50000000E+00  5.50000000E-01
  2.50000000E+00  2.50000000E+00  8.00000000E-01  8.00000000E-01  4.20000000E-01
  8.00000000E-01  2.50000000E+00  2.50000000E+00  5.50000000E-01  1.55555556E-01
  1.55555556E-01  1.60000000E-01  2.50000000E+00  2.50000000E+00  7.00000000E-03
  8.00000000E-01  1.55555556E-01  1.55555556E-01  2.50000000E-01  1.55555556E-01
  1.55555556E-01  1.29000000E-01  4.20000000E-01  2.50000000E+00  2.50000000E+00
  4.00000000E-01  1.66666667E-01  1.66666667E-01  5.50000000E-01  2.50000000E+00
  2.50000000E+00  8.00000000E-01  8.00000000E-01  4.20000000E-01  2.50000000E+00
  2.50000000E+00  5.50000000E-01  2.50000000E+00  2.50000000E+00  8.00000000E-01
  8.00000000E-01  4.20000000E-01  8.00000000E-01  2.50000000E+00  2.50000000E+00
  5.50000000E-01  1.55555556E-01  1.55555556E-01  3.10000000E-02  2.50000000E+00
  2.50000000E+00  9.50000000E-02  8.00000000E-01  1.55555556E-01  1.55555556E-01
  1.55555556E-01  1.55555556E-01  1.55555556E-01  7.40000000E-02  4.20000000E-01
  2.50000000E+00  2.50000000E+00  4.00000000E-01  6.52500000E+00  6.52500000E+00
  1.67500000E+00  1.67500000E+00  1.50000000E+00  3.00000000E+00  3.50000000E+00
  3.50000000E+00  1.67500000E+00  1.52500000E+00  6.52500000E+00  1.50000000E+00
  1.50000000E+00  1.52500000E+00  3.62500000E+00  3.62500000E+00  3.62500000E+00
  3.00000000E+00  3.62500000E+00  3.62500000E+00  1.52500000E+00  3.50000000E+00
  3.50000000E+00  3.62500000E+00  3.00000000E+00  3.62500000E+00  3.62500000E+00
  3.62500000E+00  3.62500000E+00  3.62500000E+00  3.62500000E+00  3.62500000E+00
  5.50000000E-01  2.50000000E+00  2.50000000E+00  8.00000000E-01  8.00000000E-01
  4.20000000E-01  8.00000000E-01  2.50000000E+00  2.50000000E+00  1.55555556E-01
  1.55555556E-01  8.90000000E-02  3.10000000E-02  3.10000000E-02  1.55555556E-01
  1.55555556E-01  1.55555556E-01  1.55555556E-01  1.55555556E-01  1.54000000E-01
  0.00000000E+00  0.00000000E+00  0.00000000E+00  0.00000000E+00  0.00000000E+00
  0.00000000E+00  0.00000000E+00  0.00000000E+00  0.00000000E+00  0.00000000E+00
  0.00000000E+00  0.00000000E+00  0.00000000E+00  0.00000000E+00  0.00000000E+00
  0.00000000E+00  0.00000000E+00  0.00000000E+00  0.00000000E+00  0.00000000E+00
  0.00000000E+00  0.00000000E+00  0.00000000E+00  0.00000000E+00  0.00000000E+00
  0.00000000E+00  0.00000000E+00  0.00000000E+00  0.00000000E+00  0.00000000E+00
  0.00000000E+00  0.00000000E+00  0.00000000E+00  0.00000000E+00  0.00000000E+00
  0.00000000E+00  0.00000000E+00  0.00000000E+00  0.00000000E+00  0.00000000E+00
  0.00000000E+00  0.00000000E+00  0.00000000E+00  0.00000000E+00  0.00000000E+00
  0.00000000E+00  0.00000000E+00  0.00000000E+00  0.00000000E+00  0.00000000E+00
  0.00000000E+00  0.00000000E+00  0.00000000E+00  0.00000000E+00  0.00000000E+00
  0.00000000E+00  0.00000000E+00  0.00000000E+00  0.00000000E+00  0.00000000E+00
  0.00000000E+00  0.00000000E+00  0.00000000E+00  0.00000000E+00  0.00000000E+00
  0.00000000E+00  0.00000000E+00  0.00000000E+00  0.00000000E+00  0.00000000E+00
  0.00000000E+00  0.00000000E+00  0.00000000E+00  0.00000000E+00  0.00000000E+00
  0.00000000E+00  0.00000000E+00  0.00000000E+00  0.00000000E+00  0.00000000E+00
  0.00000000E+00  0.00000000E+00  0.00000000E+00  0.00000000E+00  0.00000000E+00
  0.00000000E+00  0.00000000E+00  0.00000000E+00  0.00000000E+00  0.00000000E+00
  0.00000000E+00  0.00000000E+00  0.00000000E+00  0.00000000E+00  0.00000000E+00
  0.00000000E+00  0.00000000E+00  0.00000000E+00  0.00000000E+00  0.00000000E+00
  0.00000000E+00  0.00000000E+00  0.00000000E+00  0.00000000E+00  0.00000000E+00
  0.00000000E+00  0.00000000E+00  0.00000000E+00  0.00000000E+00  0.00000000E+00
  0.00000000E+00  0.00000000E+00  0.00000000E+00  0.00000000E+00  0.00000000E+00
  0.00000000E+00  0.00000000E+00  0.00000000E+00  0.00000000E+00  0.00000000E+00
  0.00000000E+00  0.00000000E+00  0.00000000E+00  0.00000000E+00  0.00000000E+00
  0.00000000E+00  0.00000000E+00  0.00000000E+00  0.00000000E+00  0.00000000E+00
  0.00000000E+00  0.00000000E+00  0.00000000E+00  0.00000000E+00  0.00000000E+00
  0.00000000E+00  0.00000000E+00  0.00000000E+00  0.00000000E+00  0.00000000E+00
  0.00000000E+00  0.00000000E+00  0.00000000E+00  0.00000000E+00  0.00000000E+00
  0.00000000E+00  0.00000000E+00  0.00000000E+00  0.00000000E+00  0.00000000E+00
  0.00000000E+00  0.00000000E+00  0.00000000E+00  0.00000000E+00  0.00000000E+00
  0.00000000E+00  0.00000000E+00  0.00000000E+00  0.00000000E+00  0.00000000E+00
  0.00000000E+00  0.00000000E+00  0.00000000E+00  0.00000000E+00  0.00000000E+00
  0.00000000E+00  0.00000000E+00  0.00000000E+00  0.00000000E+00  0.00000000E+00
  0.00000000E+00  0.00000000E+00  0.00000000E+00  0.00000000E+00  0.00000000E+00
  0.00000000E+00  0.00000000E+00  0.00000000E+00  0.00000000E+00  0.00000000E+00
  0.00000000E+00  0.00000000E+00  0.00000000E+00  0.00000000E+00  0.00000000E+00
  0.00000000E+00  0.00000000E+00  0.00000000E+00  0.00000000E+00  0.00000000E+00
  0.00000000E+00  0.00000000E+00  0.00000000E+00  0.00000000E+00  0.00000000E+00
  0.00000000E+00  0.00000000E+00  0.00000000E+00  0.00000000E+00  0.00000000E+00
  0.00000000E+00  0.00000000E+00  0.00000000E+00  0.00000000E+00  0.00000000E+00
  0.00000000E+00  0.00000000E+00  0.00000000E+00  0.00000000E+00  0.00000000E+00
  0.00000000E+00  0.00000000E+00  0.00000000E+00  0.00000000E+00  0.00000000E+00
  0.00000000E+00  0.00000000E+00  0.00000000E+00
%FLAG DIHEDRAL_PERIODICITY
%FORMAT(5E16.8)
  3.00000000E+00  2.00000000E+00  1.00000000E+00  2.00000000E+00  2.00000000E+00
  1.00000000E+00  2.00000000E+00  1.00000000E+00  2.00000000E+00  1.00000000E+00
  2.00000000E+00  2.00000000E+00  1.00000000E+00  3.00000000E+00  2.00000000E+00
  2.00000000E+00  1.00000000E+00  3.00000000E+00  2.00000000E+00  1.00000000E+00
  2.00000000E+00  2.00000000E+00  1.00000000E+00  3.00000000E+00  2.00000000E+00
  1.00000000E+00  3.00000000E+00  2.00000000E+00  1.00000000E+00  2.00000000E+00
  1.00000000E+00  2.00000000E+00  3.00000000E+00  2.00000000E+00  1.00000000E+00
  3.00000000E+00  2.00000000E+00  1.00000000E+00  3.00000000E+00  2.00000000E+00
  1.00000000E+00  2.00000000E+00  1.00000000E+00  2.00000000E+00  1.00000000E+00
  2.00000000E+00  1.00000000E+00  2.00000000E+00  1.00000000E+00  3.00000000E+00
  2.00000000E+00  1.00000000E+00  2.00000000E+00  1.00000000E+00  3.00000000E+00
  2.00000000E+00  1.00000000E+00  3.00000000E+00  2.00000000E+00  1.00000000E+00
  2.00000000E+00  1.00000000E+00  3.00000000E+00  2.00000000E+00  1.00000000E+00
  3.00000000E+00  2.00000000E+00  1.00000000E+00  2.00000000E+00  1.00000000E+00
  2.00000000E+00  2.00000000E+00  2.00000000E+00  2.00000000E+00  2.00000000E+00
  2.00000000E+00  2.00000000E+00  2.00000000E+00  3.00000000E+00  3.00000000E+00
  4.00000000E+00  3.00000000E+00  3.00000000E+00  3.00000000E+00  3.00000000E+00
  3.00000000E+00  3.00000000E+00  3.00000000E+00  3.00000000E+00  3.00000000E+00
  2.00000000E+00  2.00000000E+00  4.00000000E+00  4.00000000E+00  3.00000000E+00
  3.00000000E+00  3.00000000E+00  3.00000000E+00  3.00000000E+00  4.00000000E+00
  3.00000000E+00  2.00000000E+00  2.00000000E+00  3.00000000E+00  2.00000000E+00
  2.00000000E+00  2.00000000E+00  2.00000000E+00  2.00000000E+00  2.00000000E+00
  2.00000000E+00  2.00000000E+00  2.00000000E+00  2.00000000E+00  2.00000000E+00
  2.00000000E+00  2.00000000E+00  2.00000000E+00  2.00000000E+00  2.00000000E+00
  2.00000000E+00  2.00000000E+00  2.00000000E+00  2.00000000E+00  2.00000000E+00
  3.00000000E+00  2.00000000E+00  2.00000000E+00  1.00000000E+00  1.00000000E+00
  3.00000000E+00  3.00000000E+00  2.00000000E+00  2.00000000E+00  3.00000000E+00
  3.00000000E+00  3.00000000E+00  3.00000000E+00  2.00000000E+00  2.00000000E+00
  3.00000000E+00  3.00000000E+00  3.00000000E+00  1.00000000E+00  3.00000000E+00
  3.00000000E+00  3.00000000E+00  3.00000000E+00  3.00000000E+00  3.00000000E+00
  3.00000000E+00  2.00000000E+00  2.00000000E+00  3.00000000E+00  3.00000000E+00
  3.00000000E+00  3.00000000E+00  3.00000000E+00  3.00000000E+00  3.00000000E+00
  3.00000000E+00  3.00000000E+00  3.00000000E+00  3.00000000E+00  3.00000000E+00
  3.00000000E+00  3.00000000E+00  3.00000000E+00  3.00000000E+00  2.00000000E+00
  2.00000000E+00  2.00000000E+00  2.00000000E+00  2.00000000E+00  2.00000000E+00
  2.00000000E+00  2.00000000E+00  2.00000000E+00  2.00000000E+00  2.00000000E+00
  2.00000000E+00  3.00000000E+00  2.00000000E+00  2.00000000E+00  1.00000000E+00
  1.00000000E+00  3.00000000E+00  3.00000000E+00  2.00000000E+00  2.00000000E+00
  3.00000000E+00  3.00000000E+00  3.00000000E+00  3.00000000E+00  2.00000000E+00
  2.00000000E+00  3.00000000E+00  3.00000000E+00  3.00000000E+00  1.00000000E+00
  3.00000000E+00  3.00000000E+00  3.00000000E+00  3.00000000E+00  3.00000000E+00
  3.00000000E+00  3.00000000E+00  2.00000000E+00  2.00000000E+00  3.00000000E+00
  3.00000000E+00  3.00000000E+00  3.00000000E+00  3.00000000E+00  3.00000000E+00
  3.00000000E+00  3.00000000E+00  3.00000000E+00  3.00000000E+00  3.00000000E+00
  3.00000000E+00  3.00000000E+00  3.00000000E+00  3.00000000E+00  3.00000000E+00
  3.00000000E+00  3.00000000E+00  3.00000000E+00  3.00000000E+00  3.00000000E+00
  3.00000000E+00  3.00000000E+00  3.00000000E+00  3.00000000E+00  3.00000000E+00
  3.00000000E+00  3.00000000E+00  3.00000000E+00  3.00000000E+00  3.00000000E+00
  3.00000000E+00  3.00000000E+00  3.00000000E+00  3.00000000E+00  2.00000000E+00
  2.00000000E+00  1.00000000E+00  1.00000000E+00  3.00000000E+00  2.00000000E+00
  2.00000000E+00  3.00000000E+00  2.00000000E+00  2.00000000E+00  1.00000000E+00
  1.00000000E+00  3.00000000E+00  2.00000000E+00  2.00000000E+00  3.00000000E+00
  2.00000000E+00  2.00000000E+00  1.00000000E+00  1.00000000E+00  3.00000000E+00
  3.00000000E+00  2.00000000E+00  2.00000000E+00  3.00000000E+00  3.00000000E+00
  3.00000000E+00  4.00000000E+00  2.00000000E+00  2.00000000E+00  4.00000000E+00
  4.00000000E+00  1.00000000E+00  3.00000000E+00  3.00000000E+00  3.00000000E+00
  3.00000000E+00  3.00000000E+00  4.00000000E+00  3.00000000E+00  2.00000000E+00
  2.00000000E+00  3.00000000E+00  3.00000000E+00  2.00000000E+00  2.00000000E+00
  1.00000000E+00  1.00000000E+00  3.00000000E+00  3.00000000E+00  2.00000000E+00
  2.00000000E+00  3.00000000E+00  3.00000000E+00  3.00000000E+00  4.00000000E+00
  2.00000000E+00  2.00000000E+00  3.00000000E+00  3.00000000E+00  4.00000000E+00
  1.00000000E+00  3.00000000E+00  3.00000000E+00  3.00000000E+00  3.00000000E+00
  3.00000000E+00  4.00000000E+00  3.00000000E+00  2.00000000E+00  2.00000000E+00
  3.00000000E+00  4.00000000E+00  4.00000000E+00  3.00000000E+00  3.00000000E+00
  3.00000000E+00  3.00000000E+00  3.00000000E+00  3.00000000E+00  3.00000000E+00
  2.00000000E+00  2.00000000E+00  1.00000000E+00  1.00000000E+00  3.00000000E+00
  3.00000000E+00  2.00000000E+00  2.00000000E+00  3.00000000E+00  3.00000000E+00
  4.00000000E+00  4.00000000E+00  2.00000000E+00  2.00000000E+00  3.00000000E+00
  3.00000000E+00  4.00000000E+00  3.00000000E+00  3.00000000E+00  3.00000000E+00
  1.00000000E+00  3.00000000E+00  3.00000000E+00  3.00000000E+00  3.00000000E+00
  4.00000000E+00  4.00000000E+00  3.00000000E+00  2.00000000E+00  2.00000000E+00
  3.00000000E+00  3.00000000E+00  3.00000000E+00  3.00000000E+00  3.00000000E+00
  3.00000000E+00  3.00000000E+00  3.00000000E+00  3.00000000E+00  3.00000000E+00
  3.00000000E+00  3.00000000E+00  3.00000000E+00  3.00000000E+00  3.00000000E+00
  3.00000000E+00  3.00000000E+00  3.00000000E+00  3.00000000E+00  3.00000000E+00
  3.00000000E+00  4.00000000E+00  3.00000000E+00  2.00000000E+00  2.00000000E+00
  1.00000000E+00  1.00000000E+00  3.00000000E+00  2.00000000E+00  2.00000000E+00
  3.00000000E+00  2.00000000E+00  2.00000000E+00  1.00000000E+00  1.00000000E+00
  3.00000000E+00  2.00000000E+00  2.00000000E+00  3.00000000E+00  2.00000000E+00
  2.00000000E+00  1.00000000E+00  1.00000000E+00  3.00000000E+00  3.00000000E+00
  2.00000000E+00  2.00000000E+00  3.00000000E+00  3.00000000E+00  3.00000000E+00
  4.00000000E+00  2.00000000E+00  2.00000000E+00  3.00000000E+00  4.00000000E+00
  4.00000000E+00  1.00000000E+00  3.00000000E+00  3.00000000E+00  3.00000000E+00
  3.00000000E+00  3.00000000E+00  4.00000000E+00  3.00000000E+00  2.00000000E+00
  2.00000000E+00  3.00000000E+00  3.00000000E+00  3.00000000E+00  3.00000000E+00
  3.00000000E+00  3.00000000E+00  3.00000000E+00  3.00000000E+00  3.00000000E+00
  3.00000000E+00  3.00000000E+00  3.00000000E+00  3.00000000E+00  3.00000000E+00
  3.00000000E+00  3.00000000E+00  3.00000000E+00  3.00000000E+00  3.00000000E+00
  3.00000000E+00  3.00000000E+00  3.00000000E+00  3.00000000E+00  3.00000000E+00
  3.00000000E+00  3.00000000E+00  2.00000000E+00  2.00000000E+00  1.00000000E+00
  1.00000000E+00  3.00000000E+00  2.00000000E+00  2.00000000E+00  3.00000000E+00
  2.00000000E+00  2.00000000E+00  1.00000000E+00  1.00000000E+00  3.00000000E+00
  3.00000000E+00  2.00000000E+00  2.00000000E+00  3.00000000E+00  3.00000000E+00
  3.00000000E+00  4.00000000E+00  2.00000000E+00  2.00000000E+00  4.00000000E+00
  1.00000000E+00  3.00000000E+00  3.00000000E+00  1.00000000E+00  3.00000000E+00
  3.00000000E+00  4.00000000E+00  3.00000000E+00  2.00000000E+00  2.00000000E+00
  3.00000000E+00  3.00000000E+00  3.00000000E+00  3.00000000E+00  2.00000000E+00
  2.00000000E+00  1.00000000E+00  1.00000000E+00  3.00000000E+00  2.00000000E+00
  2.00000000E+00  3.00000000E+00  2.00000000E+00  2.00000000E+00  1.00000000E+00
  1.00000000E+00  3.00000000E+00  3.00000000E+00  2.00000000E+00  2.00000000E+00
  3.00000000E+00  3.00000000E+00  3.00000000E+00  4.00000000E+00  2.00000000E+00
  2.00000000E+00  4.00000000E+00  1.00000000E+00  3.00000000E+00  3.00000000E+00
  3.00000000E+00  3.00000000E+00  3.00000000E+00  4.00000000E+00  3.00000000E+00
  2.00000000E+00  2.00000000E+00  3.00000000E+00  2.00000000E+00  2.00000000E+00
  2.00000000E+00  2.00000000E+00  2.00000000E+00  2.00000000E+00  2.00000000E+00
  2.00000000E+00  2.00000000E+00  2.00000000E+00  2.00000000E+00  2.00000000E+00
  2.00000000E+00  2.00000000E+00  2.00000000E+00  2.00000000E+00  2.00000000E+00
  2.00000000E+00  2.00000000E+00  2.00000000E+00  2.00000000E+00  2.00000000E+00
  2.00000000E+00  2.00000000E+00  2.00000000E+00  2.00000000E+00  2.00000000E+00
  2.00000000E+00  2.00000000E+00  2.00000000E+00  2.00000000E+00  2.00000000E+00
  3.00000000E+00  2.00000000E+00  2.00000000E+00  1.00000000E+00  1.00000000E+00
  3.00000000E+00  3.00000000E+00  2.00000000E+00  2.00000000E+00  3.00000000E+00
  3.00000000E+00  4.00000000E+00  4.00000000E+00  4.00000000E+00  3.00000000E+00
  3.00000000E+00  3.00000000E+00  3.00000000E+00  3.00000000E+00  4.00000000E+00
  1.00000000E+00  1.00000000E+00  1.00000000E+00  1.00000000E+00  1.00000000E+00
  1.00000000E+00  1.00000000E+00  1.00000000E+00  1.00000000E+00  1.00000000E+00
  1.00000000E+00  1.00000000E+00  1.00000000E+00  1.00000000E+00  1.00000000E+00
  1.00000000E+00  1.00000000E+00  1.00000000E+00  1.00000000E+00  1.00000000E+00
  1.00000000E+00  1.00000000E+00  1.00000000E+00  1.00000000E+00  1.00000000E+00
  1.00000000E+00  1.00000000E+00  1.00000000E+00  1.00000000E+00  1.00000000E+00
  1.00000000E+00  1.00000000E+00  1.00000000E+00  1.00000000E+00  1.00000000E+00
  1.00000000E+00  1.00000000E+00  1.00000000E+00  1.00000000E+00  1.00000000E+00
  1.00000000E+00  1.00000000E+00  1.00000000E+00  1.00000000E+00  1.00000000E+00
  1.00000000E+00  1.00000000E+00  1.00000000E+00  1.00000000E+00  1.00000000E+00
  1.00000000E+00  1.00000000E+00  1.00000000E+00  1.00000000E+00  1.00000000E+00
  1.00000000E+00  1.00000000E+00  1.00000000E+00  1.00000000E+00  1.00000000E+00
  1.00000000E+00  1.00000000E+00  1.00000000E+00  1.00000000E+00  1.00000000E+00
  1.00000000E+00  1.00000000E+00  1.00000000E+00  1.00000000E+00  1.00000000E+00
  1.00000000E+00  1.00000000E+00  1.00000000E+00  1.00000000E+00  1.00000000E+00
  1.00000000E+00  1.00000000E+00  1.00000000E+00  1.00000000E+00  1.00000000E+00
  1.00000000E+00  1.00000000E+00  1.00000000E+00  1.00000000E+00  1.00000000E+00
  1.00000000E+00  1.00000000E+00  1.00000000E+00  1.00000000E+00  1.00000000E+00
  1.00000000E+00  1.00000000E+00  1.00000000E+00  1.00000000E+00  1.00000000E+00
  1.00000000E+00  1.00000000E+00  1.00000000E+00  1.00000000E+00  1.00000000E+00
  1.00000000E+00  1.00000000E+00  1.00000000E+00  1.00000000E+00  1.00000000E+00
  1.00000000E+00  1.00000000E+00  1.00000000E+00  1.00000000E+00  1.00000000E+00
  1.00000000E+00  1.00000000E+00  1.00000000E+00  1.00000000E+00  1.00000000E+00
  1.00000000E+00  1.00000000E+00  1.00000000E+00  1.00000000E+00  1.00000000E+00
  1.00000000E+00  1.00000000E+00  1.00000000E+00  1.00000000E+00  1.00000000E+00
  1.00000000E+00  1.00000000E+00  1.00000000E+00  1.00000000E+00  1.00000000E+00
  1.00000000E+00  1.00000000E+00  1.00000000E+00  1.00000000E+00  1.00000000E+00
  1.00000000E+00  1.00000000E+00  1.00000000E+00  1.00000000E+00  1.00000000E+00
  1.00000000E+00  1.00000000E+00  1.00000000E+00  1.00000000E+00  1.00000000E+00
  1.00000000E+00  1.00000000E+00  1.00000000E+00  1.00000000E+00  1.00000000E+00
  1.00000000E+00  1.00000000E+00  1.00000000E+00  1.00000000E+00  1.00000000E+00
  1.00000000E+00  1.00000000E+00  1.00000000E+00  1.00000000E+00  1.00000000E+00
  1.00000000E+00  1.00000000E+00  1.00000000E+00  1.00000000E+00  1.00000000E+00
  1.00000000E+00  1.00000000E+00  1.00000000E+00  1.00000000E+00  1.00000000E+00
  1.00000000E+00  1.00000000E+00  1.00000000E+00  1.00000000E+00  1.00000000E+00
  1.00000000E+00  1.00000000E+00  1.00000000E+00  1.00000000E+00  1.00000000E+00
  1.00000000E+00  1.00000000E+00  1.00000000E+00  1.00000000E+00  1.00000000E+00
  1.00000000E+00  1.00000000E+00  1.00000000E+00  1.00000000E+00  1.00000000E+00
  1.00000000E+00  1.00000000E+00  1.00000000E+00  1.00000000E+00  1.00000000E+00
  1.00000000E+00  1.00000000E+00  1.00000000E+00  1.00000000E+00  1.00000000E+00
  1.00000000E+00  1.00000000E+00  1.00000000E+00  1.00000000E+00  1.00000000E+00
  1.00000000E+00  1.00000000E+00  1.00000000E+00  1.00000000E+00  1.00000000E+00
  1.00000000E+00  1.00000000E+00  1.00000000E+00  1.00000000E+00  1.00000000E+00
  1.00000000E+00  1.00000000E+00  1.00000000E+00
%FLAG DIHEDRAL_PHASE
%FORMAT(5E16.8)
  0.00000000E+00  3.14159265E+00  3.14159265E+00  3.14159265E+00  3.14159265E+00
  0.00000000E+00  0.00000000E+00  0.00000000E+00  0.00000000E+00  0.00000000E+00
  3.14159265E+00  3.14159265E+00  3.14159265E+00  3.14159265E+00  0.00000000E+00
  3.14159265E+00  3.14159265E+00  0.00000000E+00  3.14159265E+00  3.14159265E+00
  3.14159265E+00  3.14159265E+00  0.00000000E+00  0.00000000E+00  3.14159265E+00
  3.14159265E+00  3.14159265E+00  3.14159265E+00  3.14159265E+00  3.14159265E+00
  3.14159265E+00  3.14159265E+00  0.00000000E+00  3.14159265E+00  0.00000000E+00
  0.00000000E+00  3.14159265E+00  0.00000000E+00  0.00000000E+00  0.00000000E+00
  0.00000000E+00  3.14159265E+00  0.00000000E+00  3.14159265E+00  3.14159265E+00
  3.14159265E+00  0.00000000E+00  3.14159265E+00  0.00000000E+00  0.00000000E+00
  3.14159265E+00  0.00000000E+00  3.14159265E+00  0.00000000E+00  0.00000000E+00
  3.14159265E+00  0.00000000E+00  0.00000000E+00  0.00000000E+00  0.00000000E+00
  3.14159265E+00  3.14159265E+00  0.00000000E+00  3.14159265E+00  0.00000000E+00
  0.00000000E+00  0.00000000E+00  0.00000000E+00  3.14159265E+00  3.14159265E+00
  3.14159265E+00  3.14159265E+00  3.14159265E+00  3.14159265E+00  3.14159265E+00
  3.14159265E+00  3.14159265E+00  3.14159265E+00  0.00000000E+00  0.00000000E+00
  3.14159265E+00  0.00000000E+00  0.00000000E+00  0.00000000E+00  0.00000000E+00
  0.00000000E+00  0.00000000E+00  0.00000000E+00  0.00000000E+00  0.00000000E+00
  3.14159265E+00  3.14159265E+00  3.14159265E+00  3.14159265E+00  0.00000000E+00
  0.00000000E+00  0.00000000E+00  0.00000000E+00  0.00000000E+00  3.14159265E+00
  0.00000000E+00  3.14159265E+00  3.14159265E+00  0.00000000E+00  3.14159265E+00
  3.14159265E+00  3.14159265E+00  3.14159265E+00  3.14159265E+00  3.14159265E+00
  3.14159265E+00  3.14159265E+00  3.14159265E+00  3.14159265E+00  3.14159265E+00
  3.14159265E+00  3.14159265E+00  3.14159265E+00  3.14159265E+00  3.14159265E+00
  3.14159265E+00  3.14159265E+00  3.14159265E+00  3.14159265E+00  3.14159265E+00
  3.14159265E+00  3.14159265E+00  3.14159265E+00  0.00000000E+00  0.00000000E+00
  0.00000000E+00  0.00000000E+00  3.14159265E+00  3.14159265E+00  3.14159265E+00
  0.00000000E+00  0.00000000E+00  0.00000000E+00  3.14159265E+00  3.14159265E+00
  0.00000000E+00  0.00000000E+00  0.00000000E+00  0.00000000E+00  0.00000000E+00
  0.00000000E+00  0.00000000E+00  0.00000000E+00  0.00000000E+00  0.00000000E+00
  0.00000000E+00  3.14159265E+00  3.14159265E+00  0.00000000E+00  0.00000000E+00
  0.00000000E+00  0.00000000E+00  0.00000000E+00  0.00000000E+00  0.00000000E+00
  0.00000000E+00  0.00000000E+00  0.00000000E+00  0.00000000E+00  0.00000000E+00
  0.00000000E+00  0.00000000E+00  0.00000000E+00  0.00000000E+00  3.14159265E+00
  3.14159265E+00  3.14159265E+00  3.14159265E+00  3.14159265E+00  3.14159265E+00
  3.14159265E+00  3.14159265E+00  3.14159265E+00  3.14159265E+00  3.14159265E+00
  3.14159265E+00  3.14159265E+00  3.14159265E+00  3.14159265E+00  0.00000000E+00
  0.00000000E+00  0.00000000E+00  0.00000000E+00  3.14159265E+00  3.14159265E+00
  3.14159265E+00  0.00000000E+00  0.00000000E+00  0.00000000E+00  3.14159265E+00
  3.14159265E+00  0.00000000E+00  0.00000000E+00  0.00000000E+00  0.00000000E+00
  0.00000000E+00  0.00000000E+00  0.00000000E+00  0.00000000E+00  0.00000000E+00
  0.00000000E+00  0.00000000E+00  3.14159265E+00  3.14159265E+00  0.00000000E+00
  0.00000000E+00  0.00000000E+00  0.00000000E+00  0.00000000E+00  0.00000000E+00
  0.00000000E+00  0.00000000E+00  0.00000000E+00  0.00000000E+00  0.00000000E+00
  0.00000000E+00  0.00000000E+00  0.00000000E+00  0.00000000E+00  0.00000000E+00
  0.00000000E+00  0.00000000E+00  0.00000000E+00  0.00000000E+00  0.00000000E+00
  0.00000000E+00  0.00000000E+00  0.00000000E+00  0.00000000E+00  0.00000000E+00
  0.00000000E+00  0.00000000E+00  0.00000000E+00  0.00000000E+00  0.00000000E+00
  0.00000000E+00  0.00000000E+00  0.00000000E+00  3.14159265E+00  3.14159265E+00
  3.14159265E+00  0.00000000E+00  0.00000000E+00  0.00000000E+00  3.14159265E+00
  3.14159265E+00  3.14159265E+00  3.14159265E+00  3.14159265E+00  0.00000000E+00
  0.00000000E+00  0.00000000E+00  3.14159265E+00  3.14159265E+00  3.14159265E+00
  3.14159265E+00  3.14159265E+00  0.00000000E+00  0.00000000E+00  0.00000000E+00
  0.00000000E+00  3.14159265E+00  3.14159265E+00  3.14159265E+00  0.00000000E+00
  0.00000000E+00  0.00000000E+00  3.14159265E+00  3.14159265E+00  3.14159265E+00
  3.14159265E+00  0.00000000E+00  0.00000000E+00  0.00000000E+00  0.00000000E+00
  0.00000000E+00  0.00000000E+00  0.00000000E+00  0.00000000E+00  3.14159265E+00
  3.14159265E+00  0.00000000E+00  3.14159265E+00  3.14159265E+00  3.14159265E+00
  0.00000000E+00  0.00000000E+00  0.00000000E+00  0.00000000E+00  3.14159265E+00
  3.14159265E+00  3.14159265E+00  0.00000000E+00  0.00000000E+00  0.00000000E+00
  3.14159265E+00  3.14159265E+00  0.00000000E+00  0.00000000E+00  3.14159265E+00
  0.00000000E+00  0.00000000E+00  0.00000000E+00  0.00000000E+00  0.00000000E+00
  0.00000000E+00  0.00000000E+00  0.00000000E+00  3.14159265E+00  3.14159265E+00
  0.00000000E+00  0.00000000E+00  0.00000000E+00  0.00000000E+00  0.00000000E+00
  0.00000000E+00  0.00000000E+00  0.00000000E+00  0.00000000E+00  3.14159265E+00
  3.14159265E+00  3.14159265E+00  0.00000000E+00  0.00000000E+00  0.00000000E+00
  0.00000000E+00  3.14159265E+00  3.14159265E+00  3.14159265E+00  0.00000000E+00
  3.14159265E+00  3.14159265E+00  3.14159265E+00  3.14159265E+00  0.00000000E+00
  0.00000000E+00  0.00000000E+00  0.00000000E+00  0.00000000E+00  0.00000000E+00
  0.00000000E+00  0.00000000E+00  0.00000000E+00  0.00000000E+00  0.00000000E+00
  0.00000000E+00  0.00000000E+00  0.00000000E+00  3.14159265E+00  3.14159265E+00
  0.00000000E+00  0.00000000E+00  0.00000000E+00  0.00000000E+00  0.00000000E+00
  0.00000000E+00  0.00000000E+00  0.00000000E+00  0.00000000E+00  0.00000000E+00
  0.00000000E+00  0.00000000E+00  0.00000000E+00  0.00000000E+00  0.00000000E+00
  0.00000000E+00  0.00000000E+00  0.00000000E+00  0.00000000E+00  0.00000000E+00
  0.00000000E+00  0.00000000E+00  3.14159265E+00  3.14159265E+00  3.14159265E+00
  0.00000000E+00  0.00000000E+00  0.00000000E+00  3.14159265E+00  3.14159265E+00
  3.14159265E+00  3.14159265E+00  3.14159265E+00  0.00000000E+00  0.00000000E+00
  0.00000000E+00  3.14159265E+00  3.14159265E+00  3.14159265E+00  3.14159265E+00
  3.14159265E+00  0.00000000E+00  0.00000000E+00  0.00000000E+00  0.00000000E+00
  3.14159265E+00  3.14159265E+00  3.14159265E+00  0.00000000E+00  0.00000000E+00
  0.00000000E+00  3.14159265E+00  3.14159265E+00  0.00000000E+00  0.00000000E+00
  0.00000000E+00  0.00000000E+00  0.00000000E+00  0.00000000E+00  0.00000000E+00
  0.00000000E+00  0.00000000E+00  0.00000000E+00  0.00000000E+00  3.14159265E+00
  3.14159265E+00  0.00000000E+00  0.00000000E+00  0.00000000E+00  0.00000000E+00
  0.00000000E+00  0.00000000E+00  0.00000000E+00  0.00000000E+00  0.00000000E+00
  0.00000000E+00  0.00000000E+00  0.00000000E+00  0.00000000E+00  0.00000000E+00
  0.00000000E+00  0.00000000E+00  0.00000000E+00  0.00000000E+00  0.00000000E+00
  0.00000000E+00  0.00000000E+00  0.00000000E+00  0.00000000E+00  0.00000000E+00
  0.00000000E+00  3.14159265E+00  3.14159265E+00  3.14159265E+00  0.00000000E+00
  0.00000000E+00  0.00000000E+00  3.14159265E+00  3.14159265E+00  3.14159265E+00
  3.14159265E+00  3.14159265E+00  0.00000000E+00  0.00000000E+00  0.00000000E+00
  0.00000000E+00  3.14159265E+00  3.14159265E+00  3.14159265E+00  0.00000000E+00
  0.00000000E+00  0.00000000E+00  3.14159265E+00  3.14159265E+00  0.00000000E+00
  0.00000000E+00  0.00000000E+00  0.00000000E+00  0.00000000E+00  0.00000000E+00
  0.00000000E+00  0.00000000E+00  0.00000000E+00  3.14159265E+00  3.14159265E+00
  0.00000000E+00  0.00000000E+00  0.00000000E+00  3.14159265E+00  3.14159265E+00
  3.14159265E+00  0.00000000E+00  0.00000000E+00  0.00000000E+00  3.14159265E+00
  3.14159265E+00  3.14159265E+00  3.14159265E+00  3.14159265E+00  0.00000000E+00
  0.00000000E+00  0.00000000E+00  0.00000000E+00  3.14159265E+00  3.14159265E+00
  3.14159265E+00  0.00000000E+00  0.00000000E+00  0.00000000E+00  3.14159265E+00
  3.14159265E+00  3.14159265E+00  0.00000000E+00  0.00000000E+00  0.00000000E+00
  0.00000000E+00  0.00000000E+00  0.00000000E+00  0.00000000E+00  0.00000000E+00
  3.14159265E+00  3.14159265E+00  0.00000000E+00  3.14159265E+00  3.14159265E+00
  3.14159265E+00  3.14159265E+00  3.14159265E+00  3.14159265E+00  3.14159265E+00
  3.14159265E+00  3.14159265E+00  3.14159265E+00  3.14159265E+00  3.14159265E+00
  3.14159265E+00  3.14159265E+00  3.14159265E+00  3.14159265E+00  3.14159265E+00
  3.14159265E+00  3.14159265E+00  3.14159265E+00  3.14159265E+00  3.14159265E+00
  3.14159265E+00  3.14159265E+00  3.14159265E+00  3.14159265E+00  3.14159265E+00
  3.14159265E+00  3.14159265E+00  3.14159265E+00  3.14159265E+00  3.14159265E+00
  3.14159265E+00  3.14159265E+00  3.14159265E+00  0.00000000E+00  0.00000000E+00
  0.00000000E+00  0.00000000E+00  3.14159265E+00  3.14159265E+00  0.00000000E+00
  0.00000000E+00  0.00000000E+00  3.14159265E+00  3.14159265E+00  0.00000000E+00
  0.00000000E+00  0.00000000E+00  0.00000000E+00  0.00000000E+00  0.00000000E+00
  0.00000000E+00  0.00000000E+00  0.00000000E+00  0.00000000E+00  0.00000000E+00
  0.00000000E+00  0.00000000E+00  0.00000000E+00  0.00000000E+00  0.00000000E+00
  0.00000000E+00  0.00000000E+00  0.00000000E+00  0.00000000E+00  0.00000000E+00
  0.00000000E+00  0.00000000E+00  0.00000000E+00  0.00000000E+00  0.00000000E+00
  0.00000000E+00  0.00000000E+00  0.00000000E+00  0.00000000E+00  0.00000000E+00
  0.00000000E+00  0.00000000E+00  0.00000000E+00  0.00000000E+00  0.00000000E+00
  0.00000000E+00  0.00000000E+00  0.00000000E+00  0.00000000E+00  0.00000000E+00
  0.00000000E+00  0.00000000E+00  0.00000000E+00  0.00000000E+00  0.00000000E+00
  0.00000000E+00  0.00000000E+00  0.00000000E+00  0.00000000E+00  0.00000000E+00
  0.00000000E+00  0.00000000E+00  0.00000000E+00  0.00000000E+00  0.00000000E+00
  0.00000000E+00  0.00000000E+00  0.00000000E+00  0.00000000E+00  0.00000000E+00
  0.00000000E+00  0.00000000E+00  0.00000000E+00  0.00000000E+00  0.00000000E+00
  0.00000000E+00  0.00000000E+00  0.00000000E+00  0.00000000E+00  0.00000000E+00
  0.00000000E+00  0.00000000E+00  0.00000000E+00  0.00000000E+00  0.00000000E+00
  0.00000000E+00  0.00000000E+00  0.00000000E+00  0.00000000E+00  0.00000000E+00
  0.00000000E+00  0.00000000E+00  0.00000000E+00  0.00000000E+00  0.00000000E+00
  0.00000000E+00  0.00000000E+00  0.00000000E+00  0.00000000E+00  0.00000000E+00
  0.00000000E+00  0.00000000E+00  0.00000000E+00  0.00000000E+00  0.00000000E+00
  0.00000000E+00  0.00000000E+00  0.00000000E+00  0.00000000E+00  0.00000000E+00
  0.00000000E+00  0.00000000E+00  0.00000000E+00  0.00000000E+00  0.00000000E+00
  0.00000000E+00  0.00000000E+00  0.00000000E+00  0.00000000E+00  0.00000000E+00
  0.00000000E+00  0.00000000E+00  0.00000000E+00  0.00000000E+00  0.00000000E+00
  0.00000000E+00  0.00000000E+00  0.00000000E+00  0.00000000E+00  0.00000000E+00
  0.00000000E+00  0.00000000E+00  0.00000000E+00  0.00000000E+00  0.00000000E+00
  0.00000000E+00  0.00000000E+00  0.00000000E+00  0.00000000E+00  0.00000000E+00
  0.00000000E+00  0.00000000E+00  0.00000000E+00  0.00000000E+00  0.00000000E+00
  0.00000000E+00  0.00000000E+00  0.00000000E+00  0.00000000E+00  0.00000000E+00
  0.00000000E+00  0.00000000E+00  0.00000000E+00  0.00000000E+00  0.00000000E+00
  0.00000000E+00  0.00000000E+00  0.00000000E+00  0.00000000E+00  0.00000000E+00
  0.00000000E+00  0.00000000E+00  0.00000000E+00  0.00000000E+00  0.00000000E+00
  0.00000000E+00  0.00000000E+00  0.00000000E+00  0.00000000E+00  0.00000000E+00
  0.00000000E+00  0.00000000E+00  0.00000000E+00  0.00000000E+00  0.00000000E+00
  0.00000000E+00  0.00000000E+00  0.00000000E+00  0.00000000E+00  0.00000000E+00
  0.00000000E+00  0.00000000E+00  0.00000000E+00  0.00000000E+00  0.00000000E+00
  0.00000000E+00  0.00000000E+00  0.00000000E+00  0.00000000E+00  0.00000000E+00
  0.00000000E+00  0.00000000E+00  0.00000000E+00  0.00000000E+00  0.00000000E+00
  0.00000000E+00  0.00000000E+00  0.00000000E+00  0.00000000E+00  0.00000000E+00
  0.00000000E+00  0.00000000E+00  0.00000000E+00  0.00000000E+00  0.00000000E+00
  0.00000000E+00  0.00000000E+00  0.00000000E+00  0.00000000E+00  0.00000000E+00
  0.00000000E+00  0.00000000E+00  0.00000000E+00  0.00000000E+00  0.00000000E+00
  0.00000000E+00  0.00000000E+00  0.00000000E+00  0.00000000E+00  0.00000000E+00
  0.00000000E+00  0.00000000E+00  0.00000000E+00  0.00000000E+00  0.00000000E+00
  0.00000000E+00  0.00000000E+00  0.00000000E+00  0.00000000E+00  0.00000000E+00
  0.00000000E+00  0.00000000E+00  0.00000000E+00
%FLAG SCEE_SCALE_FACTOR
%FORMAT(5E16.8)
  1.00000000E+00  1.00000000E+00  1.00000000E+00  1.00000000E+00  1.00000000E+00
  1.00000000E+00  1.00000000E+00  1.00000000E+00  1.00000000E+00  1.00000000E+00
  1.00000000E+00  1.00000000E+00  1.00000000E+00  1.00000000E+00  1.00000000E+00
  1.00000000E+00  1.00000000E+00  1.00000000E+00  1.00000000E+00  1.00000000E+00
  1.00000000E+00  1.00000000E+00  1.00000000E+00  1.00000000E+00  1.00000000E+00
  1.00000000E+00  1.00000000E+00  1.00000000E+00  1.00000000E+00  1.00000000E+00
  1.00000000E+00  1.00000000E+00  1.00000000E+00  1.00000000E+00  1.00000000E+00
  1.00000000E+00  1.00000000E+00  1.00000000E+00  1.00000000E+00  1.00000000E+00
  1.00000000E+00  1.00000000E+00  1.00000000E+00  1.00000000E+00  1.00000000E+00
  1.00000000E+00  1.00000000E+00  1.00000000E+00  1.00000000E+00  1.00000000E+00
  1.00000000E+00  1.00000000E+00  1.00000000E+00  1.00000000E+00  1.00000000E+00
  1.00000000E+00  1.00000000E+00  1.00000000E+00  1.00000000E+00  1.00000000E+00
  1.00000000E+00  1.00000000E+00  1.00000000E+00  1.00000000E+00  1.00000000E+00
  1.00000000E+00  1.00000000E+00  1.00000000E+00  1.00000000E+00  1.00000000E+00
  1.00000000E+00  1.00000000E+00  1.00000000E+00  1.00000000E+00  1.00000000E+00
  1.00000000E+00  1.00000000E+00  1.00000000E+00  1.20000000E+00  1.20000000E+00
  1.20000000E+00  1.20000000E+00  1.20000000E+00  1.20000000E+00  1.20000000E+00
  1.20000000E+00  1.20000000E+00  1.20000000E+00  1.20000000E+00  1.20000000E+00
  1.20000000E+00  1.20000000E+00  1.20000000E+00  1.20000000E+00  1.20000000E+00
  1.20000000E+00  1.20000000E+00  1.20000000E+00  1.20000000E+00  1.20000000E+00
  1.20000000E+00  1.20000000E+00  1.20000000E+00  1.20000000E+00  1.20000000E+00
  1.20000000E+00  1.20000000E+00  1.20000000E+00  1.20000000E+00  1.20000000E+00
  1.20000000E+00  1.20000000E+00  1.20000000E+00  1.20000000E+00  1.20000000E+00
  1.20000000E+00  1.20000000E+00  1.20000000E+00  1.20000000E+00  1.20000000E+00
  1.20000000E+00  1.20000000E+00  1.20000000E+00  1.20000000E+00  1.20000000E+00
  1.20000000E+00  1.20000000E+00  1.20000000E+00  1.20000000E+00  1.20000000E+00
  1.20000000E+00  1.20000000E+00  1.20000000E+00  1.20000000E+00  1.20000000E+00
  1.20000000E+00  1.20000000E+00  1.20000000E+00  1.20000000E+00  1.20000000E+00
  1.20000000E+00  1.20000000E+00  1.20000000E+00  1.20000000E+00  1.20000000E+00
  1.20000000E+00  1.20000000E+00  1.20000000E+00  1.20000000E+00  1.20000000E+00
  1.20000000E+00  1.20000000E+00  1.20000000E+00  1.20000000E+00  1.20000000E+00
  1.20000000E+00  1.20000000E+00  1.20000000E+00  1.20000000E+00  1.20000000E+00
  1.20000000E+00  1.20000000E+00  1.20000000E+00  1.20000000E+00  1.20000000E+00
  1.20000000E+00  1.20000000E+00  1.20000000E+00  1.20000000E+00  1.20000000E+00
  1.20000000E+00  1.20000000E+00  1.20000000E+00  1.20000000E+00  1.20000000E+00
  1.20000000E+00  1.20000000E+00  1.20000000E+00  1.20000000E+00  1.20000000E+00
  1.20000000E+00  1.20000000E+00  1.20000000E+00  1.20000000E+00  1.20000000E+00
  1.20000000E+00  1.20000000E+00  1.20000000E+00  1.20000000E+00  1.20000000E+00
  1.20000000E+00  1.20000000E+00  1.20000000E+00  1.20000000E+00  1.20000000E+00
  1.20000000E+00  1.20000000E+00  1.20000000E+00  1.20000000E+00  1.20000000E+00
  1.20000000E+00  1.20000000E+00  1.20000000E+00  1.20000000E+00  1.20000000E+00
  1.20000000E+00  1.20000000E+00  1.20000000E+00  1.20000000E+00  1.20000000E+00
  1.20000000E+00  1.20000000E+00  1.20000000E+00  1.20000000E+00  1.20000000E+00
  1.20000000E+00  1.20000000E+00  1.20000000E+00  1.20000000E+00  1.20000000E+00
  1.20000000E+00  1.20000000E+00  1.20000000E+00  1.20000000E+00  1.20000000E+00
  1.20000000E+00  1.20000000E+00  1.20000000E+00  1.20000000E+00  1.20000000E+00
  1.20000000E+00  1.20000000E+00  1.20000000E+00  1.20000000E+00  1.20000000E+00
  1.20000000E+00  1.20000000E+00  1.20000000E+00  1.20000000E+00  1.20000000E+00
  1.20000000E+00  1.20000000E+00  1.20000000E+00  1.20000000E+00  1.20000000E+00
  1.20000000E+00  1.20000000E+00  1.20000000E+00  1.20000000E+00  1.20000000E+00
  1.20000000E+00  1.20000000E+00  1.20000000E+00  1.20000000E+00  1.20000000E+00
  1.20000000E+00  1.20000000E+00  1.20000000E+00  1.20000000E+00  1.20000000E+00
  1.20000000E+00  1.20000000E+00  1.20000000E+00  1.20000000E+00  1.20000000E+00
  1.20000000E+00  1.20000000E+00  1.20000000E+00  1.20000000E+00  1.20000000E+00
  1.20000000E+00  1.20000000E+00  1.20000000E+00  1.20000000E+00  1.20000000E+00
  1.20000000E+00  1.20000000E+00  1.20000000E+00  1.20000000E+00  1.20000000E+00
  1.20000000E+00  1.20000000E+00  1.20000000E+00  1.20000000E+00  1.20000000E+00
  1.20000000E+00  1.20000000E+00  1.20000000E+00  1.20000000E+00  1.20000000E+00
  1.20000000E+00  1.20000000E+00  1.20000000E+00  1.20000000E+00  1.20000000E+00
  1.20000000E+00  1.20000000E+00  1.20000000E+00  1.20000000E+00  1.20000000E+00
  1.20000000E+00  1.20000000E+00  1.20000000E+00  1.20000000E+00  1.20000000E+00
  1.20000000E+00  1.20000000E+00  1.20000000E+00  1.20000000E+00  1.20000000E+00
  1.20000000E+00  1.20000000E+00  1.20000000E+00  1.20000000E+00  1.20000000E+00
  1.20000000E+00  1.20000000E+00  1.20000000E+00  1.20000000E+00  1.20000000E+00
  1.20000000E+00  1.20000000E+00  1.20000000E+00  1.20000000E+00  1.20000000E+00
  1.20000000E+00  1.20000000E+00  1.20000000E+00  1.20000000E+00  1.20000000E+00
  1.20000000E+00  1.20000000E+00  1.20000000E+00  1.20000000E+00  1.20000000E+00
  1.20000000E+00  1.20000000E+00  1.20000000E+00  1.20000000E+00  1.20000000E+00
  1.20000000E+00  1.20000000E+00  1.20000000E+00  1.20000000E+00  1.20000000E+00
  1.20000000E+00  1.20000000E+00  1.20000000E+00  1.20000000E+00  1.20000000E+00
  1.20000000E+00  1.20000000E+00  1.20000000E+00  1.20000000E+00  1.20000000E+00
  1.20000000E+00  1.20000000E+00  1.20000000E+00  1.20000000E+00  1.20000000E+00
  1.20000000E+00  1.20000000E+00  1.20000000E+00  1.20000000E+00  1.20000000E+00
  1.20000000E+00  1.20000000E+00  1.20000000E+00  1.20000000E+00  1.20000000E+00
  1.20000000E+00  1.20000000E+00  1.20000000E+00  1.20000000E+00  1.20000000E+00
  1.20000000E+00  1.20000000E+00  1.20000000E+00  1.20000000E+00  1.20000000E+00
  1.20000000E+00  1.20000000E+00  1.20000000E+00  1.20000000E+00  1.20000000E+00
  1.20000000E+00  1.20000000E+00  1.20000000E+00  1.20000000E+00  1.20000000E+00
  1.20000000E+00  1.20000000E+00  1.20000000E+00  1.20000000E+00  1.20000000E+00
  1.20000000E+00  1.20000000E+00  1.20000000E+00  1.20000000E+00  1.20000000E+00
  1.20000000E+00  1.20000000E+00  1.20000000E+00  1.20000000E+00  1.20000000E+00
  1.20000000E+00  1.20000000E+00  1.20000000E+00  1.20000000E+00  1.20000000E+00
  1.20000000E+00  1.20000000E+00  1.20000000E+00  1.20000000E+00  1.20000000E+00
  1.20000000E+00  1.20000000E+00  1.20000000E+00  1.20000000E+00  1.20000000E+00
  1.20000000E+00  1.20000000E+00  1.20000000E+00  1.20000000E+00  1.20000000E+00
  1.20000000E+00  1.20000000E+00  1.20000000E+00  1.20000000E+00  1.20000000E+00
  1.20000000E+00  1.20000000E+00  1.20000000E+00  1.20000000E+00  1.20000000E+00
  1.20000000E+00  1.20000000E+00  1.20000000E+00  1.20000000E+00  1.20000000E+00
  1.20000000E+00  1.20000000E+00  1.20000000E+00  1.20000000E+00  1.20000000E+00
  1.20000000E+00  1.20000000E+00  1.20000000E+00  1.20000000E+00  1.20000000E+00
  1.20000000E+00  1.20000000E+00  1.20000000E+00  1.20000000E+00  1.20000000E+00
  1.20000000E+00  1.20000000E+00  1.20000000E+00  1.20000000E+00  1.20000000E+00
  1.20000000E+00  1.20000000E+00  1.20000000E+00  1.20000000E+00  1.20000000E+00
  1.20000000E+00  1.20000000E+00  1.20000000E+00  1.20000000E+00  1.20000000E+00
  1.20000000E+00  1.20000000E+00  1.20000000E+00  1.20000000E+00  1.20000000E+00
  1.20000000E+00  1.20000000E+00  1.20000000E+00  1.20000000E+00  1.20000000E+00
  1.20000000E+00  1.20000000E+00  1.20000000E+00  1.20000000E+00  1.20000000E+00
  1.20000000E+00  1.20000000E+00  1.20000000E+00  1.20000000E+00  1.20000000E+00
  1.20000000E+00  1.20000000E+00  1.20000000E+00  1.20000000E+00  1.20000000E+00
  1.20000000E+00  1.20000000E+00  1.20000000E+00  1.20000000E+00  1.20000000E+00
  1.20000000E+00  1.20000000E+00  1.20000000E+00  1.20000000E+00  1.20000000E+00
  1.20000000E+00  1.20000000E+00  1.20000000E+00  1.20000000E+00  1.20000000E+00
  1.20000000E+00  1.20000000E+00  1.20000000E+00  1.20000000E+00  1.20000000E+00
  1.20000000E+00  1.20000000E+00  1.20000000E+00  1.20000000E+00  1.20000000E+00
  1.20000000E+00  1.20000000E+00  1.20000000E+00  1.20000000E+00  1.20000000E+00
  1.20000000E+00  1.20000000E+00  1.20000000E+00  1.20000000E+00  1.20000000E+00
  1.20000000E+00  1.20000000E+00  1.20000000E+00  1.20000000E+00  1.20000000E+00
  1.20000000E+00  1.20000000E+00  1.20000000E+00  1.20000000E+00  1.20000000E+00
  1.20000000E+00  1.20000000E+00  1.20000000E+00  1.20000000E+00  1.20000000E+00
  1.20000000E+00  1.20000000E+00  1.20000000E+00  1.20000000E+00  1.20000000E+00
  1.20000000E+00  1.20000000E+00  1.20000000E+00  1.20000000E+00  1.20000000E+00
  1.20000000E+00  1.20000000E+00  1.20000000E+00  1.20000000E+00  1.20000000E+00
  1.20000000E+00  1.20000000E+00  1.20000000E+00  1.20000000E+00  1.20000000E+00
  1.20000000E+00  1.20000000E+00  1.20000000E+00  1.20000000E+00  1.20000000E+00
  1.20000000E+00  1.20000000E+00  1.20000000E+00  1.20000000E+00  1.20000000E+00
  1.20000000E+00  1.20000000E+00  1.20000000E+00  1.20000000E+00  1.20000000E+00
  1.20000000E+00  1.20000000E+00  1.20000000E+00  1.20000000E+00  1.20000000E+00
  1.20000000E+00  1.20000000E+00  1.20000000E+00  1.20000000E+00  1.20000000E+00
  1.20000000E+00  1.20000000E+00  1.20000000E+00  1.20000000E+00  1.20000000E+00
  1.20000000E+00  1.20000000E+00  1.20000000E+00  1.20000000E+00  1.20000000E+00
  1.20000000E+00  1.20000000E+00  1.20000000E+00  1.20000000E+00  1.20000000E+00
  1.20000000E+00  1.20000000E+00  1.20000000E+00  1.20000000E+00  1.20000000E+00
  1.20000000E+00  1.20000000E+00  1.20000000E+00  1.20000000E+00  1.20000000E+00
  1.20000000E+00  1.20000000E+00  1.20000000E+00  1.20000000E+00  1.20000000E+00
  1.20000000E+00  1.20000000E+00  1.20000000E+00  1.20000000E+00  1.20000000E+00
  1.20000000E+00  1.20000000E+00  1.20000000E+00  1.20000000E+00  1.20000000E+00
  1.20000000E+00  1.20000000E+00  1.20000000E+00  1.20000000E+00  1.20000000E+00
  1.20000000E+00  1.20000000E+00  1.20000000E+00  1.20000000E+00  1.20000000E+00
  1.20000000E+00  1.20000000E+00  1.20000000E+00  1.20000000E+00  1.20000000E+00
  1.20000000E+00  1.20000000E+00  1.20000000E+00  1.20000000E+00  1.20000000E+00
  1.20000000E+00  1.20000000E+00  1.20000000E+00  1.20000000E+00  1.20000000E+00
  1.20000000E+00  1.20000000E+00  1.20000000E+00  1.20000000E+00  1.20000000E+00
  1.20000000E+00  1.20000000E+00  1.20000000E+00  1.20000000E+00  1.20000000E+00
  1.20000000E+00  1.20000000E+00  1.20000000E+00  1.20000000E+00  1.20000000E+00
  1.20000000E+00  1.20000000E+00  1.20000000E+00  1.20000000E+00  1.20000000E+00
  1.20000000E+00  1.20000000E+00  1.20000000E+00  1.20000000E+00  1.20000000E+00
  1.20000000E+00  1.20000000E+00  1.20000000E+00  1.20000000E+00  1.20000000E+00
  1.20000000E+00  1.20000000E+00  1.20000000E+00  1.20000000E+00  1.20000000E+00
  1.20000000E+00  1.20000000E+00  1.20000000E+00  1.20000000E+00  1.20000000E+00
  1.20000000E+00  1.20000000E+00  1.20000000E+00  1.20000000E+00  1.20000000E+00
  1.20000000E+00  1.20000000E+00  1.20000000E+00  1.20000000E+00  1.20000000E+00
  1.20000000E+00  1.20000000E+00  1.20000000E+00  1.20000000E+00  1.20000000E+00
  1.20000000E+00  1.20000000E+00  1.20000000E+00  1.20000000E+00  1.20000000E+00
  1.20000000E+00  1.20000000E+00  1.20000000E+00  1.20000000E+00  1.20000000E+00
  1.20000000E+00  1.20000000E+00  1.20000000E+00  1.20000000E+00  1.20000000E+00
  1.20000000E+00  1.20000000E+00  1.20000000E+00  1.20000000E+00  1.20000000E+00
  1.20000000E+00  1.20000000E+00  1.20000000E+00  1.20000000E+00  1.20000000E+00
  1.20000000E+00  1.20000000E+00  1.20000000E+00  1.20000000E+00  1.20000000E+00
  1.20000000E+00  1.20000000E+00  1.20000000E+00  1.20000000E+00  1.20000000E+00
  1.20000000E+00  1.20000000E+00  1.20000000E+00  1.20000000E+00  1.20000000E+00
  1.20000000E+00  1.20000000E+00  1.20000000E+00  1.20000000E+00  1.20000000E+00
  1.20000000E+00  1.20000000E+00  1.20000000E+00  1.20000000E+00  1.20000000E+00
  1.20000000E+00  1.20000000E+00  1.20000000E+00  1.20000000E+00  1.20000000E+00
  1.20000000E+00  1.20000000E+00  1.20000000E+00  1.20000000E+00  1.20000000E+00
  1.20000000E+00  1.20000000E+00  1.20000000E+00  1.20000000E+00  1.20000000E+00
  1.20000000E+00  1.20000000E+00  1.20000000E+00  1.20000000E+00  1.20000000E+00
  1.20000000E+00  1.20000000E+00  1.20000000E+00  1.20000000E+00  1.20000000E+00
  1.20000000E+00  1.20000000E+00  1.20000000E+00
%FLAG SCNB_SCALE_FACTOR
%FORMAT(5E16.8)
  1.00000000E+00  1.00000000E+00  1.00000000E+00  1.00000000E+00  1.00000000E+00
  1.00000000E+00  1.00000000E+00  1.00000000E+00  1.00000000E+00  1.00000000E+00
  1.00000000E+00  1.00000000E+00  1.00000000E+00  1.00000000E+00  1.00000000E+00
  1.00000000E+00  1.00000000E+00  1.00000000E+00  1.00000000E+00  1.00000000E+00
  1.00000000E+00  1.00000000E+00  1.00000000E+00  1.00000000E+00  1.00000000E+00
  1.00000000E+00  1.00000000E+00  1.00000000E+00  1.00000000E+00  1.00000000E+00
  1.00000000E+00  1.00000000E+00  1.00000000E+00  1.00000000E+00  1.00000000E+00
  1.00000000E+00  1.00000000E+00  1.00000000E+00  1.00000000E+00  1.00000000E+00
  1.00000000E+00  1.00000000E+00  1.00000000E+00  1.00000000E+00  1.00000000E+00
  1.00000000E+00  1.00000000E+00  1.00000000E+00  1.00000000E+00  1.00000000E+00
  1.00000000E+00  1.00000000E+00  1.00000000E+00  1.00000000E+00  1.00000000E+00
  1.00000000E+00  1.00000000E+00  1.00000000E+00  1.00000000E+00  1.00000000E+00
  1.00000000E+00  1.00000000E+00  1.00000000E+00  1.00000000E+00  1.00000000E+00
  1.00000000E+00  1.00000000E+00  1.00000000E+00  1.00000000E+00  1.00000000E+00
  1.00000000E+00  1.00000000E+00  1.00000000E+00  1.00000000E+00  1.00000000E+00
  1.00000000E+00  1.00000000E+00  1.00000000E+00  2.00000000E+00  2.00000000E+00
  2.00000000E+00  2.00000000E+00  2.00000000E+00  2.00000000E+00  2.00000000E+00
  2.00000000E+00  2.00000000E+00  2.00000000E+00  2.00000000E+00  2.00000000E+00
  2.00000000E+00  2.00000000E+00  2.00000000E+00  2.00000000E+00  2.00000000E+00
  2.00000000E+00  2.00000000E+00  2.00000000E+00  2.00000000E+00  2.00000000E+00
  2.00000000E+00  2.00000000E+00  2.00000000E+00  2.00000000E+00  2.00000000E+00
  2.00000000E+00  2.00000000E+00  2.00000000E+00  2.00000000E+00  2.00000000E+00
  2.00000000E+00  2.00000000E+00  2.00000000E+00  2.00000000E+00  2.00000000E+00
  2.00000000E+00  2.00000000E+00  2.00000000E+00  2.00000000E+00  2.00000000E+00
  2.00000000E+00  2.00000000E+00  2.00000000E+00  2.00000000E+00  2.00000000E+00
  2.00000000E+00  2.00000000E+00  2.00000000E+00  2.00000000E+00  2.00000000E+00
  2.00000000E+00  2.00000000E+00  2.00000000E+00  2.00000000E+00  2.00000000E+00
  2.00000000E+00  2.00000000E+00  2.00000000E+00  2.00000000E+00  2.00000000E+00
  2.00000000E+00  2.00000000E+00  2.00000000E+00  2.00000000E+00  2.00000000E+00
  2.00000000E+00  2.00000000E+00  2.00000000E+00  2.00000000E+00  2.00000000E+00
  2.00000000E+00  2.00000000E+00  2.00000000E+00  2.00000000E+00  2.00000000E+00
  2.00000000E+00  2.00000000E+00  2.00000000E+00  2.00000000E+00  2.00000000E+00
  2.00000000E+00  2.00000000E+00  2.00000000E+00  2.00000000E+00  2.00000000E+00
  2.00000000E+00  2.00000000E+00  2.00000000E+00  2.00000000E+00  2.00000000E+00
  2.00000000E+00  2.00000000E+00  2.00000000E+00  2.00000000E+00  2.00000000E+00
  2.00000000E+00  2.00000000E+00  2.00000000E+00  2.00000000E+00  2.00000000E+00
  2.00000000E+00  2.00000000E+00  2.00000000E+00  2.00000000E+00  2.00000000E+00
  2.00000000E+00  2.00000000E+00  2.00000000E+00  2.00000000E+00  2.00000000E+00
  2.00000000E+00  2.00000000E+00  2.00000000E+00  2.00000000E+00  2.00000000E+00
  2.00000000E+00  2.00000000E+00  2.00000000E+00  2.00000000E+00  2.00000000E+00
  2.00000000E+00  2.00000000E+00  2.00000000E+00  2.00000000E+00  2.00000000E+00
  2.00000000E+00  2.00000000E+00  2.00000000E+00  2.00000000E+00  2.00000000E+00
  2.00000000E+00  2.00000000E+00  2.00000000E+00  2.00000000E+00  2.00000000E+00
  2.00000000E+00  2.00000000E+00  2.00000000E+00  2.00000000E+00  2.00000000E+00
  2.00000000E+00  2.00000000E+00  2.00000000E+00  2.00000000E+00  2.00000000E+00
  2.00000000E+00  2.00000000E+00  2.00000000E+00  2.00000000E+00  2.00000000E+00
  2.00000000E+00  2.00000000E+00  2.00000000E+00  2.00000000E+00  2.00000000E+00
  2.00000000E+00  2.00000000E+00  2.00000000E+00  2.00000000E+00  2.00000000E+00
  2.00000000E+00  2.00000000E+00  2.00000000E+00  2.00000000E+00  2.00000000E+00
  2.00000000E+00  2.00000000E+00  2.00000000E+00  2.00000000E+00  2.00000000E+00
  2.00000000E+00  2.00000000E+00  2.00000000E+00  2.00000000E+00  2.00000000E+00
  2.00000000E+00  2.00000000E+00  2.00000000E+00  2.00000000E+00  2.00000000E+00
  2.00000000E+00  2.00000000E+00  2.00000000E+00  2.00000000E+00  2.00000000E+00
  2.00000000E+00  2.00000000E+00  2.00000000E+00  2.00000000E+00  2.00000000E+00
  2.00000000E+00  2.00000000E+00  2.00000000E+00  2.00000000E+00  2.00000000E+00
  2.00000000E+00  2.00000000E+00  2.00000000E+00  2.00000000E+00  2.00000000E+00
  2.00000000E+00  2.00000000E+00  2.00000000E+00  2.00000000E+00  2.00000000E+00
  2.00000000E+00  2.00000000E+00  2.00000000E+00  2.00000000E+00  2.00000000E+00
  2.00000000E+00  2.00000000E+00  2.00000000E+00  2.00000000E+00  2.00000000E+00
  2.00000000E+00  2.00000000E+00  2.00000000E+00  2.00000000E+00  2.00000000E+00
  2.00000000E+00  2.00000000E+00  2.00000000E+00  2.00000000E+00  2.00000000E+00
  2.00000000E+00  2.00000000E+00  2.00000000E+00  2.00000000E+00  2.00000000E+00
  2.00000000E+00  2.00000000E+00  2.00000000E+00  2.00000000E+00  2.00000000E+00
  2.00000000E+00  2.00000000E+00  2.00000000E+00  2.00000000E+00  2.00000000E+00
  2.00000000E+00  2.00000000E+00  2.00000000E+00  2.00000000E+00  2.00000000E+00
  2.00000000E+00  2.00000000E+00  2.00000000E+00  2.00000000E+00  2.00000000E+00
  2.00000000E+00  2.00000000E+00  2.00000000E+00  2.00000000E+00  2.00000000E+00
  2.00000000E+00  2.00000000E+00  2.00000000E+00  2.00000000E+00  2.00000000E+00
  2.00000000E+00  2.00000000E+00  2.00000000E+00  2.00000000E+00  2.00000000E+00
  2.00000000E+00  2.00000000E+00  2.00000000E+00  2.00000000E+00  2.00000000E+00
  2.00000000E+00  2.00000000E+00  2.00000000E+00  2.00000000E+00  2.00000000E+00
  2.00000000E+00  2.00000000E+00  2.00000000E+00  2.00000000E+00  2.00000000E+00
  2.00000000E+00  2.00000000E+00  2.00000000E+00  2.00000000E+00  2.00000000E+00
  2.00000000E+00  2.00000000E+00  2.00000000E+00  2.00000000E+00  2.00000000E+00
  2.00000000E+00  2.00000000E+00  2.00000000E+00  2.00000000E+00  2.00000000E+00
  2.00000000E+00  2.00000000E+00  2.00000000E+00  2.00000000E+00  2.00000000E+00
  2.00000000E+00  2.00000000E+00  2.00000000E+00  2.00000000E+00  2.00000000E+00
  2.00000000E+00  2.00000000E+00  2.00000000E+00  2.00000000E+00  2.00000000E+00
  2.00000000E+00  2.00000000E+00  2.00000000E+00  2.00000000E+00  2.00000000E+00
  2.00000000E+00  2.00000000E+00  2.00000000E+00  2.00000000E+00  2.00000000E+00
  2.00000000E+00  2.00000000E+00  2.00000000E+00  2.00000000E+00  2.00000000E+00
  2.00000000E+00  2.00000000E+00  2.00000000E+00  2.00000000E+00  2.00000000E+00
  2.00000000E+00  2.00000000E+00  2.00000000E+00  2.00000000E+00  2.00000000E+00
  2.00000000E+00  2.00000000E+00  2.00000000E+00  2.00000000E+00  2.00000000E+00
  2.00000000E+00  2.00000000E+00  2.00000000E+00  2.00000000E+00  2.00000000E+00
  2.00000000E+00  2.00000000E+00  2.00000000E+00  2.00000000E+00  2.00000000E+00
  2.00000000E+00  2.00000000E+00  2.00000000E+00  2.00000000E+00  2.00000000E+00
  2.00000000E+00  2.00000000E+00  2.00000000E+00  2.00000000E+00  2.00000000E+00
  2.00000000E+00  2.00000000E+00  2.00000000E+00  2.00000000E+00  2.00000000E+00
  2.00000000E+00  2.00000000E+00  2.00000000E+00  2.00000000E+00  2.00000000E+00
  2.00000000E+00  2.00000000E+00  2.00000000E+00  2.00000000E+00  2.00000000E+00
  2.00000000E+00  2.00000000E+00  2.00000000E+00  2.00000000E+00  2.00000000E+00
  2.00000000E+00  2.00000000E+00  2.00000000E+00  2.00000000E+00  2.00000000E+00
  2.00000000E+00  2.00000000E+00  2.00000000E+00  2.00000000E+00  1.00000000E+10
  2.00000000E+00  2.00000000E+00  2.00000000E+00  2.00000000E+00  2.00000000E+00
  2.00000000E+00  2.00000000E+00  2.00000000E+00  2.00000000E+00  2.00000000E+00
  2.00000000E+00  1.00000000E+10  1.00000000E+10  2.00000000E+00  2.00000000E+00
  2.00000000E+00  2.00000000E+00  2.00000000E+00  2.00000000E+00  2.00000000E+00
  2.00000000E+00  2.00000000E+00  2.00000000E+00  2.00000000E+00  2.00000000E+00
  2.00000000E+00  2.00000000E+00  2.00000000E+00  2.00000000E+00  2.00000000E+00
  2.00000000E+00  2.00000000E+00  2.00000000E+00  2.00000000E+00  2.00000000E+00
  2.00000000E+00  2.00000000E+00  2.00000000E+00  2.00000000E+00  2.00000000E+00
  2.00000000E+00  2.00000000E+00  2.00000000E+00  2.00000000E+00  2.00000000E+00
  2.00000000E+00  2.00000000E+00  2.00000000E+00  2.00000000E+00  2.00000000E+00
  2.00000000E+00  2.00000000E+00  2.00000000E+00  2.00000000E+00  2.00000000E+00
  2.00000000E+00  2.00000000E+00  2.00000000E+00  2.00000000E+00  2.00000000E+00
  2.00000000E+00  2.00000000E+00  2.00000000E+00  2.00000000E+00  2.00000000E+00
  2.00000000E+00  2.00000000E+00  2.00000000E+00  2.00000000E+00  2.00000000E+00
  2.00000000E+00  2.00000000E+00  2.00000000E+00  2.00000000E+00  2.00000000E+00
  2.00000000E+00  2.00000000E+00  2.00000000E+00  2.00000000E+00  2.00000000E+00
  2.00000000E+00  2.00000000E+00  2.00000000E+00  2.00000000E+00  2.00000000E+00
  2.00000000E+00  2.00000000E+00  2.00000000E+00  2.00000000E+00  2.00000000E+00
  2.00000000E+00  2.00000000E+00  2.00000000E+00  2.00000000E+00  2.00000000E+00
  2.00000000E+00  2.00000000E+00  2.00000000E+00  2.00000000E+00  2.00000000E+00
  2.00000000E+00  2.00000000E+00  2.00000000E+00  2.00000000E+00  2.00000000E+00
  2.00000000E+00  2.00000000E+00  2.00000000E+00  2.00000000E+00  2.00000000E+00
  2.00000000E+00  2.00000000E+00  2.00000000E+00  2.00000000E+00  2.00000000E+00
  2.00000000E+00  2.00000000E+00  2.00000000E+00  2.00000000E+00  2.00000000E+00
  2.00000000E+00  2.00000000E+00  2.00000000E+00  2.00000000E+00  2.00000000E+00
  2.00000000E+00  2.00000000E+00  2.00000000E+00  2.00000000E+00  2.00000000E+00
  2.00000000E+00  2.00000000E+00  2.00000000E+00  2.00000000E+00  2.00000000E+00
  2.00000000E+00  2.00000000E+00  2.00000000E+00  2.00000000E+00  2.00000000E+00
  2.00000000E+00  2.00000000E+00  2.00000000E+00  2.00000000E+00  2.00000000E+00
  2.00000000E+00  2.00000000E+00  2.00000000E+00  2.00000000E+00  2.00000000E+00
  2.00000000E+00  2.00000000E+00  2.00000000E+00  2.00000000E+00  2.00000000E+00
  2.00000000E+00  2.00000000E+00  2.00000000E+00  2.00000000E+00  2.00000000E+00
  2.00000000E+00  2.00000000E+00  2.00000000E+00  2.00000000E+00  2.00000000E+00
  2.00000000E+00  2.00000000E+00  2.00000000E+00  2.00000000E+00  2.00000000E+00
  2.00000000E+00  2.00000000E+00  2.00000000E+00  2.00000000E+00  2.00000000E+00
  2.00000000E+00  2.00000000E+00  2.00000000E+00  2.00000000E+00  2.00000000E+00
  2.00000000E+00  2.00000000E+00  2.00000000E+00  2.00000000E+00  2.00000000E+00
  2.00000000E+00  2.00000000E+00  2.00000000E+00  2.00000000E+00  2.00000000E+00
  2.00000000E+00  2.00000000E+00  2.00000000E+00  2.00000000E+00  2.00000000E+00
  2.00000000E+00  2.00000000E+00  2.00000000E+00  2.00000000E+00  2.00000000E+00
  2.00000000E+00  2.00000000E+00  2.00000000E+00  2.00000000E+00  2.00000000E+00
  2.00000000E+00  2.00000000E+00  2.00000000E+00  2.00000000E+00  2.00000000E+00
  2.00000000E+00  2.00000000E+00  2.00000000E+00  2.00000000E+00  2.00000000E+00
  2.00000000E+00  2.00000000E+00  2.00000000E+00  2.00000000E+00  2.00000000E+00
  2.00000000E+00  2.00000000E+00  2.00000000E+00  2.00000000E+00  2.00000000E+00
  2.00000000E+00  2.00000000E+00  2.00000000E+00  2.00000000E+00  2.00000000E+00
  2.00000000E+00  2.00000000E+00  2.00000000E+00  2.00000000E+00  2.00000000E+00
  2.00000000E+00  2.00000000E+00  2.00000000E+00  2.00000000E+00  2.00000000E+00
  2.00000000E+00  2.00000000E+00  2.00000000E+00  2.00000000E+00  2.00000000E+00
  2.00000000E+00  2.00000000E+00  2.00000000E+00  2.00000000E+00  2.00000000E+00
  2.00000000E+00  2.00000000E+00  2.00000000E+00  2.00000000E+00  2.00000000E+00
  2.00000000E+00  2.00000000E+00  2.00000000E+00  2.00000000E+00  2.00000000E+00
  2.00000000E+00  2.00000000E+00  2.00000000E+00  2.00000000E+00  2.00000000E+00
  2.00000000E+00  2.00000000E+00  2.00000000E+00  2.00000000E+00  2.00000000E+00
  2.00000000E+00  2.00000000E+00  2.00000000E+00  2.00000000E+00  2.00000000E+00
  2.00000000E+00  2.00000000E+00  2.00000000E+00  2.00000000E+00  2.00000000E+00
  2.00000000E+00  2.00000000E+00  2.00000000E+00  2.00000000E+00  2.00000000E+00
  2.00000000E+00  2.00000000E+00  2.00000000E+00  2.00000000E+00  2.00000000E+00
  2.00000000E+00  2.00000000E+00  2.00000000E+00  2.00000000E+00  2.00000000E+00
  2.00000000E+00  2.00000000E+00  2.00000000E+00  2.00000000E+00  2.00000000E+00
  2.00000000E+00  2.00000000E+00  2.00000000E+00  2.00000000E+00  2.00000000E+00
  2.00000000E+00  2.00000000E+00  2.00000000E+00  2.00000000E+00  2.00000000E+00
  2.00000000E+00  2.00000000E+00  2.00000000E+00  2.00000000E+00  2.00000000E+00
  2.00000000E+00  2.00000000E+00  2.00000000E+00
%FLAG SOLTY
%FORMAT(5E16.8)
  0.00000000E+00
%FLAG LENNARD_JONES_ACOEF
%FORMAT(5E16.8)
  9.44293233E+05  2.12601181E+03  1.39982777E-01  9.95480466E+05  2.56678134E+03
  1.04308023E+06  2.01791425E+04  9.14716912E+00  2.27401052E+04  2.01823541E+02
  8.82619071E+05  2.27577561E+03  9.24822270E+05  2.01619733E+04  8.19971662E+05
  6.06829342E+05  1.02595236E+03  6.47841731E+05  1.12780457E+04  5.74393458E+05
  3.79876399E+05  8.96776989E+04  1.07193646E+02  9.71708117E+04  1.41077189E+03
  8.61541883E+04  5.44261042E+04  7.51607703E+03  7.91627154E+04  8.90987508E+01
  8.59947003E+04  1.21014911E+03  7.62451550E+04  4.77908183E+04  6.55825601E+03
  5.71629601E+03  6.20665997E+04  5.94667300E+01  6.78771368E+04  8.79040886E+02
  6.01816484E+04  3.69471530E+04  4.98586848E+03  4.33325458E+03  3.25969625E+03
  7.44975864E+05  1.40467023E+03  7.91544157E+05  1.45985502E+04  7.01803794E+05
  4.71003287E+05  6.82786631E+04  6.00750218E+04  4.66922514E+04  5.81803229E+05
  0.00000000E+00  0.00000000E+00  0.00000000E+00  0.00000000E+00  0.00000000E+00
  0.00000000E+00  0.00000000E+00  0.00000000E+00  0.00000000E+00  0.00000000E+00
  0.00000000E+00  6.58473870E+04  6.63368273E+01  7.18621074E+04  9.55000044E+02
  6.37148278E+04  3.93690817E+04  5.34045360E+03  4.64559155E+03  3.50301067E+03
  4.96707306E+04  0.00000000E+00  3.76169105E+03  9.84684600E+05  2.53456440E+03
  1.03184851E+06  2.24743442E+04  9.14863930E+05  6.40712560E+05  9.60832554E+04
  8.50294791E+04  6.71095195E+04  7.82881336E+05  0.00000000E+00  7.10513128E+04
  1.02073671E+06  5.18220260E+05  1.06722540E+03  5.48478208E+05  1.06013455E+04
  4.86295154E+05  3.30296908E+05  4.83404799E+04  4.26018274E+04  3.32551339E+04
  4.06752008E+05  0.00000000E+00  3.53289728E+04  5.42502534E+05  2.83662575E+05
  8.11497350E+05  1.94008400E+03  8.53193737E+05  1.78601506E+04  7.56463928E+05
  5.24402060E+05  7.80065389E+04  6.89371259E+04  5.42099106E+04  6.42430744E+05
  0.00000000E+00  5.74592031E+04  8.43969952E+05  4.46121722E+05  6.96551276E+05
  5.99897901E+05  1.11043914E+03  6.37913494E+05  1.16505362E+04  5.65590822E+05
  3.78641356E+05  5.47803235E+04  4.81820985E+04  3.74148715E+04  4.68011805E+05
  0.00000000E+00  3.98127143E+04  6.30925504E+05  3.27367585E+05  5.17507491E+05
  3.76435470E+05  6.89296946E+05  1.54161417E+03  7.26877088E+05  1.46820101E+04
  6.44468276E+05  4.42689091E+05  6.53734853E+04  5.77011015E+04  4.52250254E+04
  5.43595012E+05  0.00000000E+00  4.79847950E+04  7.18991463E+05  3.78207390E+05
  5.92438683E+05  4.37717034E+05  5.03152404E+05  6.43853349E+04  5.78352684E+01
  7.06006146E+04  8.84544347E+02  6.25963552E+04  3.81142515E+04  5.10916075E+03
  4.43530964E+03  3.32626784E+03  4.82692694E+04  0.00000000E+00  3.57795711E+03
  6.97998263E+04  3.44374471E+04  5.63013422E+04  3.86646725E+04  4.69084694E+04
  3.39005767E+03  8.64679274E+04  1.00417924E+02  9.38067954E+04  1.34169202E+03
  8.31715633E+04  5.23449021E+04  7.20681791E+03  6.28513799E+03  4.77162373E+03
  6.57310418E+04  0.00000000E+00  5.11317150E+03  9.27554496E+04  4.65732396E+04
  7.52549148E+04  5.27277400E+04  6.30298721E+04  4.88692384E+03  6.90855956E+03
  2.40872585E+02  2.48828086E-03  3.07630260E+02  4.94997704E-01  2.72753051E+02
  1.02912387E+02  9.22638396E+00  7.46295598E+00  4.62642987E+00  1.47660648E+02
  0.00000000E+00  5.28189878E+00  3.03553352E+02  1.16469347E+02  2.25372434E+02
  1.15813907E+02  1.74176419E+02  4.36660257E+00  8.53132435E+00  1.10360882E-05
%FLAG LENNARD_JONES_BCOEF
%FORMAT(5E16.8)
  8.01323529E+02  2.09604198E+01  9.37598976E-02  7.36907417E+02  2.06278363E+01
  6.75612247E+02  6.45756063E+01  7.57919667E-01  6.13981767E+01  3.56012899E+00
  6.53361429E+02  1.82891803E+01  5.99015525E+02  5.44372326E+01  5.31102864E+02
  6.77220874E+02  1.53505284E+01  6.26720080E+02  5.08951803E+01  5.55666448E+02
  5.64885984E+02  1.36131731E+02  2.59456373E+00  1.26919150E+02  9.41257003E+00
  1.12529845E+02  1.11805549E+02  2.17257828E+01  1.26451907E+02  2.33864085E+00
  1.18043746E+02  8.61880722E+00  1.04660679E+02  1.03580945E+02  2.00642027E+01
  1.85196588E+01  1.13252061E+02  1.93248820E+00  1.06076943E+02  7.42992380E+00
  9.40505980E+01  9.21192136E+01  1.76949863E+01  1.63092814E+01  1.43076527E+01
  7.50714425E+02  1.79702257E+01  6.93079947E+02  5.79323581E+01  6.14502845E+02
  6.29300710E+02  1.25287818E+02  1.16187983E+02  1.03606917E+02  6.99746810E+02
  0.00000000E+00  0.00000000E+00  0.00000000E+00  0.00000000E+00  0.00000000E+00
  0.00000000E+00  0.00000000E+00  0.00000000E+00  0.00000000E+00  0.00000000E+00
  0.00000000E+00  1.15327881E+02  2.01792524E+00  1.07908863E+02  7.65648470E+00
  9.56748258E+01  9.40124296E+01  1.81057616E+01  1.66953734E+01  1.46638650E+01
  1.05648788E+02  0.00000000E+00  1.50233639E+01  7.30206155E+02  2.04226110E+01
  6.69494459E+02  6.08139360E+01  5.93591333E+02  6.20970728E+02  1.25742895E+02
  1.16947855E+02  1.05087646E+02  6.86742760E+02  0.00000000E+00  1.06903901E+02
  6.63431737E+02  4.79881022E+02  1.20051375E+01  4.42179058E+02  3.78372494E+01
  3.92047541E+02  4.03897559E+02  8.07968711E+01  7.49896074E+01  6.70144433E+01
  4.48425641E+02  0.00000000E+00  6.82892701E+01  4.38146883E+02  2.87011518E+02
  6.48597119E+02  1.74825352E+01  5.95658566E+02  5.30440533E+01  5.28126496E+02
  5.49675335E+02  1.10856114E+02  1.03031170E+02  9.24130897E+01  6.08686716E+02
  0.00000000E+00  9.40636541E+01  5.90251928E+02  3.88758656E+02  5.24668528E+02
  6.15165511E+02  1.45902714E+01  5.68167388E+02  4.72594809E+01  5.03752097E+02
  5.15240418E+02  1.02477444E+02  9.50181887E+01  8.46911674E+01  5.73100668E+02
  0.00000000E+00  8.63723599E+01  5.62969425E+02  3.67361018E+02  4.98871431E+02
  4.69350655E+02  5.88797748E+02  1.53501807E+01  5.41546250E+02  4.73716383E+01
  4.80149098E+02  4.97456336E+02  9.99600502E+01  9.28465134E+01  8.31409640E+01
  5.51505564E+02  0.00000000E+00  8.46691831E+01  5.36620538E+02  3.52573684E+02
  4.76608379E+02  4.51916854E+02  4.32634597E+02  1.23751804E+02  2.04464126E+00
  1.16065835E+02  7.99614292E+00  1.02907011E+02  1.00379343E+02  1.92174397E+01
  1.77023375E+01  1.55059847E+01  1.13016701E+02  0.00000000E+00  1.58996004E+01
  1.14981426E+02  7.31636661E+01  1.01040256E+02  9.23664132E+01  9.08431526E+01
  1.67944276E+01  1.34516705E+02  2.52706841E+00  1.25489661E+02  9.23714573E+00
  1.11262422E+02  1.10338858E+02  2.14083478E+01  1.97659043E+01  1.74198525E+01
  1.23703833E+02  0.00000000E+00  1.78280753E+01  1.24325688E+02  7.98066064E+01
  1.09570372E+02  1.01173582E+02  9.87712192E+01  1.89134207E+01  2.10929191E+01
  5.21867651E+00  9.24653616E-03  5.28230309E+00  1.30416027E-01  4.68342836E+00
  3.59619399E+00  5.63047631E-01  5.00648264E-01  3.98705627E-01  4.30971229E+00
  0.00000000E+00  4.21184434E-01  5.22789272E+00  2.93355636E+00  4.40751799E+00
  3.48534600E+00  3.81654050E+00  4.15568027E-01  5.44840215E-01  4.55498033E-04
%FLAG BONDS_INC_HYDROGEN
%FORMAT(10I8)
      12      15       4      24      27       4      24      30       4      36
      39       8      42      45       8      48      51       8      54      57
       8      60      63       8       3       0       9       6       0       9
       9       0       9      72      75       4      72      78       4      69
      66       9      93      96       4     105     108       4     105     111
       4     123     126       4     123     129       4     114     117       4
     114     120       4      90      87       9     135     132       9     144
     141       9     147     141       9     153     150       9     156     150
       9     165     168       4     165     171       4     162     159       9
     186     189       4     198     201       4     198     204       4     216
     219       4     216     222       4     225     228       4     225     231
       4     207     210       4     207     213       4     183     180       9
     237     234       9     240     234       9     243     234       9     252
     255       4     252     258       4     249     246       9     273     276
       4     273     279       4     270     267       9     294     297       4
     294     300       4     291     288       9     315     318       4     327
     330       4     327     333       4     312     309       9     351     354
       4     351     357       4     348     345       9     372     375       4
     384     387       4     384     390       4     393     396       4     393
     399       4     369     366       9     417     420       4     417     423
       4     414     411       9     438     441       4     450     453       4
     477     480       4     477     483       4     477     486       4     456
     459       4     456     462       4     465     468       4     465     471
       4     465     474       4     435     432       9     495     498       4
     495     501       4     492     489       9     516     519       4     516
     522       4     513     510       9     537     540       4     537     543
       4     534     531       9     558     561       4     570     573       4
     570     576       4     585     588       4     585     591       4     585
     594       4     597     600       4     597     603       4     597     606
       4     579     582       4     555     552       9     615     618       4
     615     621       4     612     609       9     636     639       4     636
     642       4     633     630       9     657     660       4     669     672
       4     669     675       4     654     651       9     681     678      16
     690     693       4     690     696       4     687     684       9     711
     714       4     711     717       4     708     705       9     732     735
       4     744     747       4     744     750       4     756     759       8
     774     777       8     792     795       8     780     783       8     786
     789       8     729     726       9     768     765       9     804     807
       4     804     810       4     801     798       9     825     828       4
     837     840       4     837     843       4     822     819       9
%FLAG BONDS_WITHOUT_HYDROGEN
%FORMAT(10I8)
      18      12       1      18      21       2      12      24       3      12
       0       5      24      33       6      36      48       7      36      33
       7      42      54       7      42      33       7      48      60       7
      54      60       7      18      66      10      81      72       1      81
      84       2      72      66      11      81      87      10      99      93
       1      99     102       2      93     105       3      93      87      11
     105     114       3     123     114       3     123     132      12     138
     132      13     138     141      13     138     150      13      99     159
      10     174     165       1     174     177       2     165     159      11
     174     180      10     192     186       1     192     195       2     186
     198       3     186     180      11     198     207       3     216     225
       3     216     207       3     225     234       5     192     246      10
     261     252       1     261     264       2     252     246      11     261
     267      10     282     273       1     282     285       2     273     267
      11     282     288      10     303     294       1     303     306       2
     294     288      11     303     309      10     321     315       1     321
     324       2     315     327       3     315     309      11     327     336
       1     336     339      14     336     342      14     321     345      10
     360     351       1     360     363       2     351     345      11     360
     366      10     378     372       1     378     381       2     372     384
       3     372     366      11     384     393       3     402     393       1
     402     405      14     402     408      14     378     411      10     426
     417       1     426     429       2     417     411      11     426     432
      10     444     438       1     444     447       2     438     450       3
     438     432      11     450     456       3     450     465       3     477
     456       3     444     489      10     504     495       1     504     507
       2     495     489      11     504     510      10     525     516       1
     525     528       2     516     510      11     525     531      10     546
     537       1     546     549       2     537     531      11     546     552
      10     564     558       1     564     567       2     558     570       3
     558     552      11     570     579       3     585     579       3     597
     579       3     564     609      10     624     615       1     624     627
       2     615     609      11     624     630      10     645     636       1
     645     648       2     636     630      11     645     651      10     663
     657       1     663     666       2     657     669       3     657     651
      11     669     678      15     663     684      10     699     690       1
     699     702       2     690     684      11     699     705      10     720
     711       1     720     723       2     711     705      11     720     726
      10     738     732       1     738     741       2     732     744       3
     732     726      11     744     753      17     756     753      18     756
     765      19     762     771      20     762     774      21     762     753
      22     771     780       7     771     765      23     774     786       7
     792     780       7     792     786       7     738     798      10     813
     804       1     813     816       2     804     798      11     813     819
      10     831     825       1     831     834      14     831     855      14
     825     837       3     825     819      11     837     846       1     846
     849      14     846     852      14
%FLAG ANGLES_INC_HYDROGEN
%FORMAT(10I8)
       0      12      15       1       3       0       6       3       3       0
       9       3       3       0      12       1       6       0       9       3
       6       0      12       1       9       0      12       1      12      24
      27       1      12      24      30       1      15      12      18       1
      15      12      24       1      18      66      69       8      27      24
      30       3      27      24      33       1      30      24      33       1
      33      36      39       8      33      42      45       8      36      48
      51       8      39      36      48       8      42      54      57       8
      45      42      54       8      48      60      63       8      51      48
      60       8      54      60      63       8      57      54      60       8
      66      72      75       1      66      72      78       1      69      66
      72      14      75      72      78       3      75      72      81       1
      78      72      81       1      81      87      90       8      87      93
      96       1      90      87      93      14      93     105     108       1
      93     105     111       1      96      93      99       1      96      93
     105       1      99     159     162       8     105     114     117       1
     105     114     120       1     108     105     111       3     108     105
     114       1     111     105     114       1     114     123     126       1
     114     123     129       1     117     114     120       3     117     114
     123       1     120     114     123       1     123     132     135      17
     126     123     129       3     126     123     132       1     129     123
     132       1     135     132     138       8     138     141     144       8
     138     141     147       8     138     150     153       8     138     150
     156       8     144     141     147      19     153     150     156      19
     159     165     168       1     159     165     171       1     162     159
     165      14     168     165     171       3     168     165     174       1
     171     165     174       1     174     180     183       8     180     186
     189       1     183     180     186      14     186     198     201       1
     186     198     204       1     189     186     192       1     189     186
     198       1     192     246     249       8     198     207     210       1
     198     207     213       1     201     198     204       3     201     198
     207       1     204     198     207       1     207     216     219       1
     207     216     222       1     210     207     213       3     210     207
     216       1     213     207     216       1     216     225     228       1
     216     225     231       1     219     216     222       3     219     216
     225       1     222     216     225       1     225     234     237       1
     225     234     240       1     225     234     243       1     228     225
     231       3     228     225     234       1     231     225     234       1
     237     234     240       3     237     234     243       3     240     234
     243       3     246     252     255       1     246     252     258       1
     249     246     252      14     255     252     258       3     255     252
     261       1     258     252     261       1     261     267     270       8
     267     273     276       1     267     273     279       1     270     267
     273      14     276     273     279       3     276     273     282       1
     279     273     282       1     282     288     291       8     288     294
     297       1     288     294     300       1     291     288     294      14
     297     294     300       3     297     294     303       1     300     294
     303       1     303     309     312       8     309     315     318       1
     312     309     315      14     315     327     330       1     315     327
     333       1     318     315     321       1     318     315     327       1
     321     345     348       8     330     327     333       3     330     327
     336       1     333     327     336       1     345     351     354       1
     345     351     357       1     348     345     351      14     354     351
     357       3     354     351     360       1     357     351     360       1
     360     366     369       8     366     372     375       1     369     366
     372      14     372     384     387       1     372     384     390       1
     375     372     378       1     375     372     384       1     378     411
     414       8     384     393     396       1     384     393     399       1
     387     384     390       3     387     384     393       1     390     384
     393       1     396     393     399       3     396     393     402       1
     399     393     402       1     411     417     420       1     411     417
     423       1     414     411     417      14     420     417     423       3
     420     417     426       1     423     417     426       1     426     432
     435       8     432     438     441       1     435     432     438      14
     438     450     453       1     441     438     444       1     441     438
     450       1     444     489     492       8     450     456     459       1
     450     456     462       1     450     465     468       1     450     465
     471       1     450     465     474       1     453     450     456       1
     453     450     465       1     456     477     480       1     456     477
     483       1     456     477     486       1     459     456     462       3
     459     456     477       1     462     456     477       1     468     465
     471       3     468     465     474       3     471     465     474       3
     480     477     483       3     480     477     486       3     483     477
     486       3     489     495     498       1     489     495     501       1
     492     489     495      14     498     495     501       3     498     495
     504       1     501     495     504       1     504     510     513       8
     510     516     519       1     510     516     522       1     513     510
     516      14     519     516     522       3     519     516     525       1
     522     516     525       1     525     531     534       8     531     537
     540       1     531     537     543       1     534     531     537      14
     540     537     543       3     540     537     546       1     543     537
     546       1     546     552     555       8     552     558     561       1
     555     552     558      14     558     570     573       1     558     570
     576       1     561     558     564       1     561     558     570       1
     564     609     612       8     570     579     582       1     573     570
     576       3     573     570     579       1     576     570     579       1
     579     585     588       1     579     585     591       1     579     585
     594       1     579     597     600       1     579     597     603       1
     579     597     606       1     582     579     585       1     582     579
     597       1     588     585     591       3     588     585     594       3
     591     585     594       3     600     597     603       3     600     597
     606       3     603     597     606       3     609     615     618       1
     609     615     621       1     612     609     615      14     618     615
     621       3     618     615     624       1     621     615     624       1
     624     630     633       8     630     636     639       1     630     636
     642       1     633     630     636      14     639     636     642       3
     639     636     645       1     642     636     645       1     645     651
     654       8     651     657     660       1     654     651     657      14
     657     669     672       1     657     669     675       1     660     657
     663       1     660     657     669       1     663     684     687       8
     669     678     681      22     672     669     675       3     672     669
     678       1     675     669     678       1     684     690     693       1
     684     690     696       1     687     684     690      14     693     690
     696       3     693     690     699       1     696     690     699       1
     699     705     708       8     705     711     714       1     705     711
     717       1     708     705     711      14     714     711     717       3
     714     711     720       1     717     711     720       1     720     726
     729       8     726     732     735       1     729     726     732      14
     732     744     747       1     732     744     750       1     735     732
     738       1     735     732     744       1     738     798     801       8
     747     744     750       3     747     744     753       1     750     744
     753       1     753     756     759       8     756     765     768       8
     759     756     765       8     762     774     777       8     768     765
     771      34     771     780     783       8     774     786     789       8
     777     774     786       8     780     792     795       8     783     780
     792       8     786     792     795       8     789     786     792       8
     798     804     807       1     798     804     810       1     801     798
     804      14     807     804     810       3     807     804     813       1
     810     804     813       1     813     819     822       8     819     825
     828       1     822     819     825      14     825     837     840       1
     825     837     843       1     828     825     831       1     828     825
     837       1     840     837     843       3     840     837     846       1
     843     837     846       1
%FLAG ANGLES_WITHOUT_HYDROGEN
%FORMAT(10I8)
       0      12      18       2       0      12      24       2      12      18
      21       4      12      18      66       5      12      24      33       6
      18      12      24       7      18      66      72       9      21      18
      66      10      24      33      36      11      24      33      42      11
      33      36      48      12      33      42      54      12      36      33
      42      12      36      48      60      12      42      54      60      12
      48      60      54      12      66      72      81      13      72      81
      84       4      72      81      87       5      81      87      93       9
      84      81      87      10      87      93      99      13      87      93
     105      15      93      99     102       4      93      99     159       5
      93     105     114      16      99      93     105       7      99     159
     165       9     102      99     159      10     105     114     123      16
     114     123     132       2     123     132     138      18     132     138
     141      11     132     138     150      11     141     138     150      11
     159     165     174      13     165     174     177       4     165     174
     180       5     174     180     186       9     177     174     180      10
     180     186     192      13     180     186     198      15     186     192
     195       4     186     192     246       5     186     198     207      16
     192     186     198       7     192     246     252       9     195     192
     246      10     198     207     216      16     207     216     225      16
     216     225     234       2     246     252     261      13     252     261
     264       4     252     261     267       5     261     267     273       9
     264     261     267      10     267     273     282      13     273     282
     285       4     273     282     288       5     282     288     294       9
     285     282     288      10     288     294     303      13     294     303
     306       4     294     303     309       5     303     309     315       9
     306     303     309      10     309     315     321      13     309     315
     327      15     315     321     324       4     315     321     345       5
     315     327     336       7     321     315     327       7     321     345
     351       9     324     321     345      10     327     336     339      20
     327     336     342      20     339     336     342      21     345     351
     360      13     351     360     363       4     351     360     366       5
     360     366     372       9     363     360     366      10     366     372
     378      13     366     372     384      15     372     378     381       4
     372     378     411       5     372     384     393      16     378     372
     384       7     378     411     417       9     381     378     411      10
     384     393     402       7     393     402     405      20     393     402
     408      20     405     402     408      21     411     417     426      13
     417     426     429       4     417     426     432       5     426     432
     438       9     429     426     432      10     432     438     444      13
     432     438     450      15     438     444     447       4     438     444
     489       5     438     450     456      16     438     450     465      16
     444     438     450       7     444     489     495       9     447     444
     489      10     450     456     477      16     456     450     465      16
     489     495     504      13     495     504     507       4     495     504
     510       5     504     510     516       9     507     504     510      10
     510     516     525      13     516     525     528       4     516     525
     531       5     525     531     537       9     528     525     531      10
     531     537     546      13     537     546     549       4     537     546
     552       5     546     552     558       9     549     546     552      10
     552     558     564      13     552     558     570      15     558     564
     567       4     558     564     609       5     558     570     579      16
     564     558     570       7     564     609     615       9     567     564
     609      10     570     579     585      16     570     579     597      16
     585     579     597      16     609     615     624      13     615     624
     627       4     615     624     630       5     624     630     636       9
     627     624     630      10     630     636     645      13     636     645
     648       4     636     645     651       5     645     651     657       9
     648     645     651      10     651     657     663      13     651     657
     669      15     657     663     666       4     657     663     684       5
     657     669     678       1     663     657     669       7     663     684
     690       9     666     663     684      10     684     690     699      13
     690     699     702       4     690     699     705       5     699     705
     711       9     702     699     705      10     705     711     720      13
     711     720     723       4     711     720     726       5     720     726
     732       9     723     720     726      10     726     732     738      13
     726     732     744      15     732     738     741       4     732     738
     798       5     732     744     753      23     738     732     744       7
     738     798     804       9     741     738     798      10     744     753
     756      24     744     753     762      25     753     756     765      26
     753     762     771      27     753     762     774      28     756     753
     762      29     756     765     771      30     762     771     765      31
     762     771     780      32     762     774     786      12     765     771
     780      33     771     762     774      35     771     780     792      12
     774     786     792      12     780     792     786      12     798     804
     813      13     804     813     816       4     804     813     819       5
     813     819     825       9     816     813     819      10     819     825
     831      13     819     825     837      15     825     831     834      20
     825     831     855      20     825     837     846       7     831     825
     837       7     834     831     855      21     837     846     849      20
     837     846     852      20     849     846     852      21
%FLAG DIHEDRALS_INC_HYDROGEN
%FORMAT(10I8)
       0      12      24      27      79       0      12      24      30      80
       3       0      12      15      82       3       0      12      18      83
       3       0      12      24      84       6       0      12      15      85
       6       0      12      18      86       6       0      12      24      87
       9       0      12      15      88       9       0      12      18      89
       9       0      12      24      90      12      18      66      69      91
      15      12      24      27      95      15      12      24      30      96
      15      12      24      33      97      18      12      24      27      98
      18      12      24      30      99      21      18      66      69     102
      21      18     -66      69       8      24      33      36      39     105
      24      33      42      45     107      33      36      48      51     109
      33      42      54      57     111      36      33      42      45     112
      36      48      60      63     114      39      36      33      42     115
      39      36      48      51     116      39      36      48      60     117
      42      54      60      63     119      45      42      54      57     120
      45      42      54      60     121      48      60      54      57     122
      51      48      60      54     123      51      48      60      63     124
      57      54      60      63     125      72      81      87      90     127
      75      72      81      84     129      75      72     -81      84      14
      78      72      81      84     130      78      72     -81      84      14
      84      81      87      90     133      84      81     -87      90       8
      87      93     105     108     136      87      93     105     111     137
      93      99     159     162     139      93     105     114     117     141
      93     105     114     120     142      96      93      99     102     144
      96      93     -99     102      14      96      93     105     108     145
      96      93     105     111     146      96      93     105     114     147
      99      93     105     108     148      99      93     105     111     149
     102      99     159     162     152     102      99    -159     162       8
     105     114     123     126     155     105     114     123     129     156
     108     105     114     117     158     108     105     114     120     159
     108     105     114     123     160     111     105     114     117     161
     111     105     114     120     162     111     105     114     123     163
     117     114     123     126     164     117     114     123     129     165
     117     114     123     132     166     120     114     123     126     167
     120     114     123     129     168     120     114     123     132     169
     132     138     141     144     172     132     138     141     147     173
     132     138     150     153     174     132     138     150     156     175
     135     132     138     141     176     135     132     138     150     177
     141     138     150     153     178     141     138     150     156     179
     144     141     138     150     180     147     141     138     150     181
     165     174     180     183     183     168     165     174     177     185
     168     165    -174     177      14     171     165     174     177     186
     171     165    -174     177      14     177     174     180     183     189
     177     174    -180     183       8     180     186     198     201     192
     180     186     198     204     193     186     192     246     249     195
     186     198     207     210     197     186     198     207     213     198
     189     186     192     195     200     189     186    -192     195      14
     189     186     198     201     201     189     186     198     204     202
     189     186     198     207     203     192     186     198     201     204
     192     186     198     204     205     195     192     246     249     208
     195     192    -246     249       8     198     207     216     219     211
     198     207     216     222     212     201     198     207     210     214
     201     198     207     213     215     201     198     207     216     216
     204     198     207     210     217     204     198     207     213     218
     204     198     207     216     219     207     216     225     228     220
     207     216     225     231     221     210     207     216     219     223
     210     207     216     222     224     210     207     216     225     225
     213     207     216     219     226     213     207     216     222     227
     213     207     216     225     228     216     225     234     237     229
     216     225     234     240     230     216     225     234     243     231
     219     216     225     228     232     219     216     225     231     233
     219     216     225     234     234     222     216     225     228     235
     222     216     225     231     236     222     216     225     234     237
     228     225     234     237     238     228     225     234     240     239
     228     225     234     243     240     231     225     234     237     241
     231     225     234     240     242     231     225     234     243     243
     252     261     267     270     245     255     252     261     264     247
     255     252    -261     264      14     258     252     261     264     248
     258     252    -261     264      14     264     261     267     270     250
     264     261    -267     270       8     273     282     288     291     253
     276     273     282     285     255     276     273    -282     285      14
     279     273     282     285     256     279     273    -282     285      14
     285     282     288     291     258     285     282    -288     291       8
     294     303     309     312     261     297     294     303     306     263
     297     294    -303     306      14     300     294     303     306     264
     300     294    -303     306      14     306     303     309     312     267
     306     303    -309     312       8     309     315     327     330     270
     309     315     327     333     271     315     321     345     348     273
     318     315     321     324     277     318     315    -321     324      14
     318     315     327     330     278     318     315     327     333     279
     318     315     327     336     280     321     315     327     330     281
     321     315     327     333     282     324     321     345     348     285
     324     321    -345     348       8     351     360     366     369     289
     354     351     360     363     291     354     351    -360     363      14
     357     351     360     363     292     357     351    -360     363      14
     363     360     366     369     295     363     360    -366     369       8
     366     372     384     387     298     366     372     384     390     299
     372     378     411     414     301     372     384     393     396     303
     372     384     393     399     304     375     372     378     381     306
     375     372    -378     381      14     375     372     384     387     307
     375     372     384     390     308     375     372     384     393     309
     378     372     384     387     310     378     372     384     390     311
     381     378     411     414     314     381     378    -411     414       8
     387     384     393     396     319     387     384     393     399     320
     387     384     393     402     321     390     384     393     396     322
     390     384     393     399     323     390     384     393     402     324
     417     426     432     435     326     420     417     426     429     328
     420     417    -426     429      14     423     417     426     429     329
     423     417    -426     429      14     429     426     432     435     332
     429     426    -432     435       8     432     438     450     453     335
     438     444     489     492     338     438     450     456     459     340
     438     450     456     462     341     438     450     465     468     343
     438     450     465     471     344     438     450     465     474     345
     441     438     444     447     346     441     438    -444     447      14
     441     438     450     453     347     441     438     450     456     348
     441     438     450     465     349     444     438     450     453     350
     447     444     489     492     354     447     444    -489     492       8
     450     456     477     480     357     450     456     477     483     358
     450     456     477     486     359     453     450     456     459     360
     453     450     456     462     361     453     450     456     477     362
     453     450     465     468     363     453     450     465     471     364
     453     450     465     474     365     456     450     465     468     366
     456     450     465     471     367     456     450     465     474     368
     459     456     450     465     369     459     456     477     480     370
     459     456     477     483     371     459     456     477     486     372
     462     456     450     465     373     462     456     477     480     374
     462     456     477     483     375     462     456     477     486     376
     495     504     510     513     379     498     495     504     507     381
     498     495    -504     507      14     501     495     504     507     382
     501     495    -504     507      14     507     504     510     513     384
     507     504    -510     513       8     516     525     531     534     387
     519     516     525     528     389     519     516    -525     528      14
     522     516     525     528     390     522     516    -525     528      14
     528     525     531     534     392     528     525    -531     534       8
     537     546     552     555     395     540     537     546     549     397
     540     537    -546     549      14     543     537     546     549     398
     543     537    -546     549      14     549     546     552     555     401
     549     546    -552     555       8     552     558     570     573     404
     552     558     570     576     405     558     564     609     612     407
     558     570     579     582     409     561     558     564     567     412
     561     558    -564     567      14     561     558     570     573     413
     561     558     570     576     414     561     558     570     579     415
     564     558     570     573     416     564     558     570     576     417
     567     564     609     612     420     567     564    -609     612       8
     570     579     585     588     423     570     579     585     591     424
     570     579     585     594     425     570     579     597     600     426
     570     579     597     603     427     570     579     597     606     428
     573     570     579     582     429     573     570     579     585     430
     573     570     579     597     431     576     570     579     582     432
     576     570     579     585     433     576     570     579     597     434
     582     579     585     588     435     582     579     585     591     436
     582     579     585     594     437     582     579     597     600     438
     582     579     597     603     439     582     579     597     606     440
     585     579     597     600     441     585     579     597     603     442
     585     579     597     606     443     588     585     579     597     444
     591     585     579     597     445     594     585     579     597     446
     615     624     630     633     448     618     615     624     627     450
     618     615    -624     627      14     621     615     624     627     451
     621     615    -624     627      14     627     624     630     633     453
     627     624    -630     633       8     636     645     651     654     456
     639     636     645     648     458     639     636    -645     648      14
     642     636     645     648     459     642     636    -645     648      14
     648     645     651     654     462     648     645    -651     654       8
     651     657     669     672     465     651     657     669     675     466
     657     663     684     687     468     657     669     678     681     470
     657     669    -678     681      58     657     669    -678     681      59
     657     669    -678     681      60     660     657     663     666     471
     660     657    -663     666      14     660     657     669     672     472
     660     657     669     675     473     660     657     669     678     474
     663     657     669     672     475     663     657     669     675     476
     666     663     684     687     479     666     663    -684     687       8
     672     669     678     681     482     675     669     678     681     483
     690     699     705     708     485     693     690     699     702     487
     693     690    -699     702      14     696     690     699     702     488
     696     690    -699     702      14     702     699     705     708     490
     702     699    -705     708       8     711     720     726     729     493
     714     711     720     723     495     714     711    -720     723      14
     717     711     720     723     496     717     711    -720     723      14
     723     720     726     729     499     723     720    -726     729       8
     726     732     744     747     502     726     732     744     750     503
     732     738     798     801     505     735     732     738     741     508
     735     732    -738     741      14     735     732     744     747     509
     735     732     744     750     510     735     732     744     753     511
     738     732     744     747     512     738     732     744     750     513
     741     738     798     801     516     741     738    -798     801       8
     744     753     756     759     519     753     756     765     768     523
     753     762     774     777     525     759     756     753     762     529
     759     756     765     768     530     759     756     765     771     531
     762     771     765     768     532     762     771     780     783     533
     762     774     786     789     535     765     771     780     783     537
     768     765     771     780     539     771     762     774     777     540
     771     780     792     795     542     774     786     792     795     544
     777     774     786     789     545     777     774     786     792     546
     780     792     786     789     547     783     780     792     786     548
     783     780     792     795     549     789     786     792     795     550
     804     813     819     822     552     807     804     813     816     554
     807     804    -813     816      14     810     804     813     816     555
     810     804    -813     816      14     816     813     819     822     558
     816     813    -819     822       8     819     825     837     840     560
     819     825     837     843     561     828     825     837     840     565
     828     825     837     843     566     828     825     837     846     567
     831     825     837     840     568     831     825     837     843     569
      33      48     -36     -39      78      33      54     -42     -45      78
      36      60     -48     -51      78      42      60     -54     -57      78
      48      54     -60     -63      78      18      72     -66     -69      78
      81      93     -87     -90      78     123     138    -132    -135      76
     138     144    -141    -147      76     138     153    -150    -156      76
      99     165    -159    -162      78     174     186    -180    -183      78
     192     252    -246    -249      78     261     273    -267    -270      78
     282     294    -288    -291      78     303     315    -309    -312      78
     321     351    -345    -348      78     360     372    -366    -369      78
     378     417    -411    -414      78     426     438    -432    -435      78
     444     495    -489    -492      78     504     516    -510    -513      78
     525     537    -531    -534      78     546     558    -552    -555      78
     564     615    -609    -612      78     624     636    -630    -633      78
     645     657    -651    -654      78     663     690    -684    -687      78
     699     711    -705    -708      78     720     732    -726    -729      78
     753     765    -756    -759      78     756     771    -765    -768      76
     786     762    -774    -777      78     771     792    -780    -783      78
     774     792    -786    -789      78     780     786    -792    -795      78
     738     804    -798    -801      78     813     825    -819    -822      78
      15      12      18      21     573      15      12      18      66     574
      18      66      72      75     575      18      66      72      78     576
      27      24      33      36     578      27      24      33      42     579
      30      24      33      36     580      30      24      33      42     581
      69      66      72      75     583      69      66      72      78     584
      69      66      72      81     585      75      72      81      87     586
      78      72      81      87     587      81      87      93      96     588
      90      87      93      96     590      90      87      93      99     591
      90      87      93     105     592      96      93      99     159     593
      99     159     165     168     594      99     159     165     171     595
     114     123     132     135     597     126     123     132     135     599
     126     123     132     138     600     129     123     132     135     601
     129     123     132     138     602     162     159     165     168     604
     162     159     165     171     605     162     159     165     174     606
     168     165     174     180     607     171     165     174     180     608
     174     180     186     189     609     183     180     186     189     611
     183     180     186     192     612     183     180     186     198     613
     189     186     192     246     614     192     246     252     255     615
     192     246     252     258     616     249     246     252     255     619
     249     246     252     258     620     249     246     252     261     621
     255     252     261     267     622     258     252     261     267     623
     261     267     273     276     624     261     267     273     279     625
     270     267     273     276     627     270     267     273     279     628
     270     267     273     282     629     276     273     282     288     630
     279     273     282     288     631     282     288     294     297     632
     282     288     294     300     633     291     288     294     297     635
     291     288     294     300     636     291     288     294     303     637
     297     294     303     309     638     300     294     303     309     639
     303     309     315     318     640     312     309     315     318     642
     312     309     315     321     643     312     309     315     327     644
     318     315     321     345     645     321     345     351     354     646
     321     345     351     357     647     330     327     336     339     649
     330     327     336     342     650     333     327     336     339     651
     333     327     336     342     652     348     345     351     354     654
     348     345     351     357     655     348     345     351     360     656
     354     351     360     366     657     357     351     360     366     658
     360     366     372     375     659     369     366     372     375     661
     369     366     372     378     662     369     366     372     384     663
     375     372     378     411     664     378     411     417     420     665
     378     411     417     423     666     396     393     402     405     668
     396     393     402     408     669     399     393     402     405     670
     399     393     402     408     671     414     411     417     420     673
     414     411     417     423     674     414     411     417     426     675
     420     417     426     432     676     423     417     426     432     677
     426     432     438     441     678     435     432     438     441     680
     435     432     438     444     681     435     432     438     450     682
     441     438     444     489     683     444     489     495     498     684
     444     489     495     501     685     492     489     495     498     688
     492     489     495     501     689     492     489     495     504     690
     498     495     504     510     691     501     495     504     510     692
     504     510     516     519     693     504     510     516     522     694
     513     510     516     519     696     513     510     516     522     697
     513     510     516     525     698     519     516     525     531     699
     522     516     525     531     700     525     531     537     540     701
     525     531     537     543     702     534     531     537     540     704
     534     531     537     543     705     534     531     537     546     706
     540     537     546     552     707     543     537     546     552     708
     546     552     558     561     709     555     552     558     561     711
     555     552     558     564     712     555     552     558     570     713
     561     558     564     609     714     564     609     615     618     715
     564     609     615     621     716     612     609     615     618     719
     612     609     615     621     720     612     609     615     624     721
     618     615     624     630     722     621     615     624     630     723
     624     630     636     639     724     624     630     636     642     725
     633     630     636     639     727     633     630     636     642     728
     633     630     636     645     729     639     636     645     651     730
     642     636     645     651     731     645     651     657     660     732
     654     651     657     660     734     654     651     657     663     735
     654     651     657     669     736     660     657     663     684     737
     663     684     690     693     738     663     684     690     696     739
     687     684     690     693     742     687     684     690     696     743
     687     684     690     699     744     693     690     699     705     745
     696     690     699     705     746     699     705     711     714     747
     699     705     711     717     748     708     705     711     714     750
     708     705     711     717     751     708     705     711     720     752
     714     711     720     726     753     717     711     720     726     754
     720     726     732     735     755     729     726     732     735     757
     729     726     732     738     758     729     726     732     744     759
     735     732     738     798     761     738     798     804     807     762
     738     798     804     810     763     747     744     753     756     765
     747     744     753     762     766     750     744     753     756     767
     750     744     753     762     768     801     798     804     807     770
     801     798     804     810     771     801     798     804     813     772
     807     804     813     819     773     810     804     813     819     774
     813     819     825     828     775     822     819     825     828     778
     822     819     825     831     779     822     819     825     837     780
     828     825     831     834     781     828     825     831     855     782
     840     837     846     849     785     840     837     846     852     786
     843     837     846     849     787     843     837     846     852     788
%FLAG DIHEDRALS_WITHOUT_HYDROGEN
%FORMAT(10I8)
       0      12      24      33      81       0      12     -24      33       1
       0      12     -24      33       2       0      12     -24      33       3
      12      18      66      72      92      12      24      33      36      93
      12      24     -33      36       4      12      24      33      42      94
      12      24     -33      42       4      18      12      24      33     100
      18      12     -24      33       1      18      12     -24      33       5
      18      12     -24      33       6      18      66      72      81     101
      18      66     -72      81       7      21      18      66      72     103
      24      12      18      66     104      24      12     -18      66       9
      24      12     -18      66      10      24      33      36      48     106
      24      33      42      54     108      33      36      48      60     110
      33      42     -54      60      11      36      33      42      54     113
      36      48     -60      54      11      42      33      36      48     118
      42      54     -60      48      11      66      72      81      87     126
      66      72     -81      87      12      66      72     -81      87      13
      72      81      87      93     128      81      87      93      99     131
      81      87     -93      99       7      81      87      93     105     132
      81      87     -93     105      15      81      87     -93     105       8
      84      81      87      93     134      87      93      99     159     135
      87      93     -99     159      12      87      93     -99     159      13
      87      93     105     114     138      93      99     159     165     140
      93     105     114     123     143      93     105    -114     123      16
      93     105    -114     123      17      99      93     105     114     150
      99     159     165     174     151      99     159    -165     174       7
     102      99     159     165     153     105      93      99     159     154
     105      93     -99     159       9     105      93     -99     159      10
     105     114     123     132     157     123     132     138     141     170
     123     132     138     150     171     159     165     174     180     182
     159     165    -174     180      12     159     165    -174     180      13
     165     174     180     186     184     174     180     186     192     187
     174     180    -186     192       7     174     180     186     198     188
     174     180    -186     198      15     174     180    -186     198       8
     177     174     180     186     190     180     186     192     246     191
     180     186    -192     246      12     180     186    -192     246      13
     180     186     198     207     194     186     192     246     252     196
     186     198     207     216     199     186     198    -207     216      16
     186     198    -207     216      17     192     186     198     207     206
     192     246     252     261     207     192     246    -252     261       7
     195     192     246     252     209     198     186     192     246     210
     198     186    -192     246       9     198     186    -192     246      10
     198     207     216     225     213     198     207    -216     225      16
     198     207    -216     225      17     207     216     225     234     222
     246     252     261     267     244     246     252    -261     267      12
     246     252    -261     267      13     252     261     267     273     246
     261     267     273     282     249     261     267    -273     282       7
     264     261     267     273     251     267     273     282     288     252
     267     273    -282     288      12     267     273    -282     288      13
     273     282     288     294     254     282     288     294     303     257
     282     288    -294     303       7     285     282     288     294     259
     288     294     303     309     260     288     294    -303     309      12
     288     294    -303     309      13     294     303     309     315     262
     303     309     315     321     265     303     309    -315     321       7
     303     309     315     327     266     303     309    -315     327      15
     303     309    -315     327       8     306     303     309     315     268
     309     315     321     345     269     309     315    -321     345      12
     309     315    -321     345      13     309     315     327     336     272
     309     315    -327     336      18     309     315    -327     336      19
     309     315    -327     336      20     315     321     345     351     274
     315     327     336     339     275     315     327    -336     339      21
     315     327     336     342     276     315     327    -336     342      21
     321     315     327     336     283     321     315    -327     336      18
     321     315    -327     336      22     321     315    -327     336      23
     321     345     351     360     284     321     345    -351     360       7
     324     321     345     351     286     327     315     321     345     287
     327     315    -321     345       9     327     315    -321     345      10
     345     351     360     366     288     345     351    -360     366      12
     345     351    -360     366      13     351     360     366     372     290
     360     366     372     378     293     360     366    -372     378       7
     360     366     372     384     294     360     366    -372     384      15
     360     366    -372     384       8     363     360     366     372     296
     366     372     378     411     297     366     372    -378     411      12
     366     372    -378     411      13     366     372     384     393     300
     366     372    -384     393      24     366     372    -384     393      25
     366     372    -384     393      26     372     378     411     417     302
     372     384     393     402     305     372     384    -393     402      27
     372     384    -393     402      28     372     384    -393     402      29
     378     372     384     393     312     378     372    -384     393      24
     378     372    -384     393      30     378     372    -384     393      31
     378     411     417     426     313     378     411    -417     426       7
     381     378     411     417     315     384     372     378     411     316
     384     372    -378     411       9     384     372    -378     411      10
     384     393     402     405     317     384     393    -402     405      32
     384     393     402     408     318     384     393    -402     408      32
     411     417     426     432     325     411     417    -426     432      12
     411     417    -426     432      13     417     426     432     438     327
     426     432     438     444     330     426     432    -438     444       7
     426     432     438     450     331     426     432    -438     450      15
     426     432    -438     450       8     429     426     432     438     333
     432     438     444     489     334     432     438    -444     489      12
     432     438    -444     489      13     432     438     450     456     336
     432     438    -450     456      33     432     438    -450     456      34
     432     438    -450     456      35     432     438     450     465     337
     432     438    -450     465      36     432     438    -450     465      37
     432     438    -450     465      38     438     444     489     495     339
     438     450     456     477     342     438     450    -456     477      39
     438     450    -456     477      40     438     450    -456     477      41
     444     438     450     456     351     444     438    -450     456      33
     444     438    -450     456      42     444     438    -450     456      43
     444     438     450     465     352     444     438    -450     465      36
     444     438    -450     465      44     444     438    -450     465      45
     444     489     495     504     353     444     489    -495     504       7
     447     444     489     495     355     450     438     444     489     356
     450     438    -444     489       9     450     438    -444     489      10
     465     450     456     477     377     465     450    -456     477      39
     465     450    -456     477      46     465     450    -456     477      47
     489     495     504     510     378     489     495    -504     510      12
     489     495    -504     510      13     495     504     510     516     380
     504     510     516     525     383     504     510    -516     525       7
     507     504     510     516     385     510     516     525     531     386
     510     516    -525     531      12     510     516    -525     531      13
     516     525     531     537     388     525     531     537     546     391
     525     531    -537     546       7     528     525     531     537     393
     531     537     546     552     394     531     537    -546     552      12
     531     537    -546     552      13     537     546     552     558     396
     546     552     558     564     399     546     552    -558     564       7
     546     552     558     570     400     546     552    -558     570      15
     546     552    -558     570       8     549     546     552     558     402
     552     558     564     609     403     552     558    -564     609      12
     552     558    -564     609      13     552     558     570     579     406
     552     558    -570     579      24     552     558    -570     579      48
     552     558    -570     579      49     558     564     609     615     408
     558     570     579     585     410     558     570    -579     585      50
     558     570    -579     585      51     558     570    -579     585      52
     558     570     579     597     411     558     570    -579     597      50
     558     570    -579     597      51     558     570    -579     597      52
     564     558     570     579     418     564     558    -570     579      24
     564     558    -570     579      53     564     558    -570     579      54
     564     609     615     624     419     564     609    -615     624       7
     567     564     609     615     421     570     558     564     609     422
     570     558    -564     609       9     570     558    -564     609      10
     609     615     624     630     447     609     615    -624     630      12
     609     615    -624     630      13     615     624     630     636     449
     624     630     636     645     452     624     630    -636     645       7
     627     624     630     636     454     630     636     645     651     455
     630     636    -645     651      12     630     636    -645     651      13
     636     645     651     657     457     645     651     657     663     460
     645     651    -657     663       7     645     651     657     669     461
     645     651    -657     669      15     645     651    -657     669       8
     648     645     651     657     463     651     657     663     684     464
     651     657    -663     684      12     651     657    -663     684      13
     651     657     669     678     467     651     657    -669     678      55
     651     657    -669     678      56     651     657    -669     678      57
     657     663     684     690     469     663     657     669     678     477
     663     657    -669     678      55     663     657    -669     678      61
     663     657    -669     678      62     663     684     690     699     478
     663     684    -690     699       7     666     663     684     690     480
     669     657     663     684     481     669     657    -663     684       9
     669     657    -663     684      10     684     690     699     705     484
     684     690    -699     705      12     684     690    -699     705      13
     690     699     705     711     486     699     705     711     720     489
     699     705    -711     720       7     702     699     705     711     491
     705     711     720     726     492     705     711    -720     726      12
     705     711    -720     726      13     711     720     726     732     494
     720     726     732     738     497     720     726    -732     738       7
     720     726     732     744     498     720     726    -732     744      15
     720     726    -732     744       8     723     720     726     732     500
     726     732     738     798     501     726     732    -738     798      12
     726     732    -738     798      13     726     732     744     753     504
     726     732    -744     753      63     726     732    -744     753      64
     726     732    -744     753      65     732     738     798     804     506
     732     744     753     762     507     732     744    -753     762      66
     732     744    -753     762      67     732     744    -753     762      68
     738     732     744     753     514     738     732    -744     753      63
     738     732    -744     753      69     738     732    -744     753      70
     738     798     804     813     515     738     798    -804     813       7
     741     738     798     804     517     744     732     738     798     518
     744     732    -738     798       9     744     732    -738     798      10
     744     753     756     765     520     744     753     762     771     521
     744     753     762     774     522     753     756    -765     771      73
     753     762    -771     765      74     753     762     771     780     524
     753     762     774     786     526     756     753    -762     771      72
     756     753     762     774     527     756     765    -771     762      75
     756     765     771     780     528     762     753    -756     765      71
     762     771     780     792     534     762     774    -786     792      11
     765     771     762     774     536     765     771     780     792     538
     771     762     774     786     541     771     780    -792     786      11
     774     762     771     780     543     774     786    -792     780      11
     798     804     813     819     551     798     804    -813     819      12
     798     804    -813     819      13     804     813     819     825     553
     813     819     825     831     556     813     819    -825     831       7
     813     819     825     837     557     813     819    -825     837      15
     813     819    -825     837       8     816     813     819     825     559
     819     825     837     846     562     819     825    -837     846      18
     819     825    -837     846      19     819     825    -837     846      20
     825     837     846     849     563     825     837    -846     849      21
     825     837     846     852     564     825     837    -846     852      21
     831     825     837     846     570     831     825    -837     846      18
     831     825    -837     846      22     831     825    -837     846      23
      12      66     -18     -21      77      36      42     -33     -24      78
      72      87     -81     -84      77      93     159     -99    -102      77
     132     141    -138    -150      77     165     180    -174    -177      77
     186     246    -192    -195      77     252     267    -261    -264      77
     273     288    -282    -285      77     294     309    -303    -306      77
     315     345    -321    -324      77     327     339    -336    -342      77
     351     366    -360    -363      77     372     411    -378    -381      77
     393     405    -402    -408      77     417     432    -426    -429      77
     438     489    -444    -447      77     495     510    -504    -507      77
     516     531    -525    -528      77     537     552    -546    -549      77
     558     609    -564    -567      77     615     630    -624    -627      77
     636     651    -645    -648      77     657     684    -663    -666      77
     690     705    -699    -702      77     711     726    -720    -723      77
     732     798    -738    -741      77     762     744    -753    -756      78
     804     819    -813    -816      77     825     834    -831    -855      77
     837     849    -846    -852      77       0      12      18      21     571
       0      12      18      66     572      21      18      12      24     577
      66      72      81      84     582      87      93      99     102     589
     102      99      93     105     596     114     123     132     138     598
     159     165     174     177     603     180     186     192     195     610
     195     192     186     198     617     246     252     261     264     618
     267     273     282     285     626     288     294     303     306     634
     309     315     321     324     641     324     321     315     327     648
     345     351     360     363     653     366     372     378     381     660
     381     378     372     384     667     411     417     426     429     672
     432     438     444     447     679     447     444     438     450     686
     489     495     504     507     687     510     516     525     528     695
     531     537     546     549     703     552     558     564     567     710
     567     564     558     570     717     609     615     624     627     718
     630     636     645     648     726     651     657     663     666     733
     666     663     657     669     740     684     690     699     702     741
     705     711     720     723     749     726     732     738     741     756
     732     744     753     756     760     741     738     732     744     764
     798     804     813     816     769     819     825     831     834     776
     819     825     831     855     777     834     831     825     837     783
     837     825     831     855     784
%FLAG EXCLUDED_ATOMS_LIST
%FORMAT(10I8)
       2       3       4       5       6       7       8       9      10      11
      12      23       3       4       5       6       7       9       4       5
       6       7       9       5       6       7       9       6       7       8
       9      10      11      12      13      15      23      24      25       7
       8       9      10      11      12      23       8       9      10      11
      12      23      24      25      26      27      28       9      23      24
      25      10      11      12      13      14      15      16      17      19
      23      11      12      13      15      12      13      15      13      14
      15      16      17      18      19      20      21      14      15      16
      17      18      19      21      22      15      17      18      21      16
      17      19      20      21      22      19      20      21      18      19
      20      21      22      19      21      22      20      21      22      21
      22      22       0      24      25      26      27      28      29      30
      25      26      27      28      26      27      28      29      30      31
      32      27      28      29      30      28      29      30      29      30
      31      32      33      34      36      30      31      32      31      32
      33      34      35      36      37      38      39      54      32      33
      34      36      33      34      35      36      37      38      39      40
      41      42      54      55      56      34      35      36      37      38
      39      54      35      36      37      38      39      54      55      56
      57      58      59      36      54      55      56      37      38      39
      40      41      42      43      44      45      54      38      39      40
      41      42      39      40      41      42      40      41      42      43
      44      45      46      47      41      42      43      44      45      42
      43      44      45      43      44      45      46      47      48      51
      44      45      46      47      45      46      47      46      47      48
      49      50      51      52      53      47      48      51      48      49
      50      51      52      53      49      50      51      52      53      50
      51      51      52      53      53       0      55      56      57      58
      59      60      61      56      57      58      59      57      58      59
      60      61      62      63      58      59      60      61      59      60
      61      60      61      62      63      64      65      67      61      62
      63      62      63      64      65      66      67      68      69      70
      83      63      64      65      67      64      65      66      67      68
      69      70      71      72      73      83      84      85      65      66
      67      68      69      70      83      66      67      68      69      70
      83      84      85      86      87      88      67      83      84      85
      68      69      70      71      72      73      74      75      76      83
      69      70      71      72      73      70      71      72      73      71
      72      73      74      75      76      77      78      79      72      73
      74      75      76      73      74      75      76      74      75      76
      77      78      79      80      81      82      75      76      77      78
      79      76      77      78      79      77      78      79      80      81
      82      78      79      80      81      82      79      80      81      82
      80      81      82      81      82      82       0      84      85      86
      87      88      89      90      85      86      87      88      86      87
      88      89      90      91      92      87      88      89      90      88
      89      90      89      90      91      92      93      94      95      90
      91      92      91      92      93      94      95      96      97      92
      93      94      95      93      94      95      96      97      98      99
      94      95      96      97      95      96      97      96      97      98
      99     100     101     102      97      98      99      98      99     100
     101     102     103     104      99     100     101     102     100     101
     102     103     104     105     106     101     102     103     104     102
     103     104     103     104     105     106     107     108     110     104
     105     106     105     106     107     108     109     110     111     112
     113     116     106     107     108     110     107     108     109     110
     111     112     113     114     115     116     117     118     108     109
     110     111     112     113     116     109     110     111     112     113
     116     117     118     119     120     121     110     116     117     118
     111     112     113     114     115     116     112     113     114     115
     113     114     115     114     115     115       0     117     118     119
     120     121     122     123     118     119     120     121     119     120
     121     122     123     124     125     120     121     122     123     121
     122     123     122     123     124     125     126     127     129     123
     124     125     124     125     126     127     128     129     130     131
     132     138     125     126     127     129     126     127     128     129
     130     131     132     133     134     135     138     139     140     127
     128     129     130     131     132     138     128     129     130     131
     132     138     139     140     141     142     143     129     138     139
     140     130     131     132     133     134     135     136     137     138
     131     132     133     134     135     132     133     134     135     133
     134     135     136     137     134     135     136     137     135     136
     137     136     137     137       0     139     140     141     142     143
     144     145     140     141     142     143     141     142     143     144
     145     146     147     142     143     144     145     143     144     145
     144     145     146     147     148     149     151     145     146     147
     146     147     148     149     150     151     152     153     156     164
     147     148     149     151     148     149     150     151     152     153
     154     155     156     157     158     159     160     164     165     166
     149     150     151     152     153     156     164     150     151     152
     153     156     164     165     166     167     168     169     151     164
     165     166     152     153     154     155     156     157     158     159
     160     161     162     163     164     153     154     155     156     157
     158     159     160     154     155     156     157     158     159     160
     161     162     163     155     156     160     161     162     163     156
     160     161     162     163     157     158     159     160     158     159
     159       0     161     162     163     162     163     163       0     165
     166     167     168     169     170     171     166     167     168     169
     167     168     169     170     171     172     173     168     169     170
     171     169     170     171     170     171     172     173     174     175
     176     171     172     173     172     173     174     175     176     177
     178     173     174     175     176     174     175     176     177     178
     179     180     175     176     177     178     176     177     178     177
     178     179     180     181     182     183     178     179     180     179
     180     181     182     183     184     185     180     181     182     183
     181     182     183     184     185     186     187     182     183     184
     185     183     184     185     184     185     186     187     188     189
     191     185     186     187     186     187     188     189     190     191
     192     193     194     204     187     188     189     191     188     189
     190     191     192     193     194     195     196     200     204     205
     206     189     190     191     192     193     194     204     190     191
     192     193     194     204     205     206     207     208     209     191
     204     205     206     192     193     194     195     196     197     198
     199     200     201     202     203     204     193     194     195     196
     200     194     195     196     200     195     196     197     198     199
     200     201     202     203     196     197     198     199     200     201
     202     203     197     198     199     200     201     202     203     198
     199     200     199     200     200     201     202     203     202     203
     203       0     205     206     207     208     209     210     211     206
     207     208     209     207     208     209     210     211     212     213
     208     209     210     211     209     210     211     210     211     212
     213     214     215     216     211     212     213     212     213     214
     215     216     217     218     213     214     215     216     214     215
     216     217     218     219     220     215     216     217     218     216
     217     218     217     218     219     220     221     222     224     218
     219     220     219     220     221     222     223     224     225     226
     227     229     220     221     222     224     221     222     223     224
     225     226     227     228     229     230     231     222     223     224
     225     226     227     229     223     224     225     226     227     229
     230     231     232     233     234     224     229     230     231     225
     226     227     228     229     226     227     228     227     228     228
       0     230     231     232     233     234     235     236     231     232
     233     234     232     233     234     235     236     237     238     233
     234     235     236     234     235     236     235     236     237     238
     239     240     241     236     237     238     237     238     239     240
     241     242     243     238     239     240     241     239     240     241
     242     243     244     245     240     241     242     243     241     242
     243     242     243     244     245     246     247     249     243     244
     245     244     245     246     247     248     249     250     251     252
     267     245     246     247     249     246     247     248     249     250
     251     252     253     255     267     268     269     247     248     249
     250     251     252     267     248     249     250     251     252     267
     268     269     270     271     272     249     267     268     269     250
     251     252     253     254     255     256     258     259     267     251
     252     253     255     252     253     255     253     254     255     256
     257     258     259     260     261     263     254     255     256     257
     258     259     261     255     256     257     258     256     257     258
     259     260     261     262     263     264     265     257     258     259
     261     262     265     258     261     259     260     261     262     263
     265     266     260     261     263     264     265     266     263     264
     265     262     263     264     265     266     263     265     266     264
     265     266     265     266     266       0     268     269     270     271
     272     273     274     269     270     271     272     270     271     272
     273     274     275     276     271     272     273     274     272     273
     274     273     274     275     276     277     278     280     274     275
     276     275     276     277     278     279     280     281     282     283
     286     276     277     278     280     277     278     279     280     281
     282     283     284     285     286     278     279     280     281     282
     283     286     279     280     281     282     283     286     280     286
     281     282     283     284     285     286     282     283     284     285
     283     284     285     284     285     285       0       0
%FLAG HBOND_ACOEF
%FORMAT(5E16.8)

%FLAG HBOND_BCOEF
%FORMAT(5E16.8)

%FLAG HBCUT
%FORMAT(5E16.8)

%FLAG AMBER_ATOM_TYPE
%FORMAT(20a4)
N1  H1  H1  H1  C1  H2  C2  O1  C1  H3  H3  C2  C2  H4  C2  H4  C2  H4  C2  H4  
C2  H4  N1  H1  C1  H5  H5  C2  O1  N1  H1  C1  H5  C2  O1  C1  H3  H3  C1  H3  
H3  C1  H5  H5  N1  H1  C2  N1  H1  H1  N1  H1  H1  N1  H1  C1  H5  H5  C2  O1  
N1  H1  C1  H5  C2  O1  C1  H3  H3  C1  H3  H3  C1  H3  H3  C1  H2  H2  N1  H1  
H1  H1  N1  H1  C1  H5  H5  C2  O1  N1  H1  C1  H5  H5  C2  O1  N1  H1  C1  H5  
H5  C2  O1  N1  H1  C1  H5  C2  O1  C1  H3  H3  C2  O1  O1  N1  H1  C1  H5  H5  
C2  O1  N1  H1  C1  H5  C2  O1  C1  H3  H3  C1  H3  H3  C2  O1  O1  N1  H1  C1  
H5  H5  C2  O1  N1  H1  C1  H5  C2  O1  C1  H3  C1  H3  H3  C1  H3  H3  H3  C1  
H3  H3  H3  N1  H1  C1  H5  H5  C2  O1  N1  H1  C1  H5  H5  C2  O1  N1  H1  C1  
H5  H5  C2  O1  N1  H1  C1  H5  C2  O1  C1  H3  H3  C1  H3  C1  H3  H3  H3  C1  
H3  H3  H3  N1  H1  C1  H5  H5  C2  O1  N1  H1  C1  H5  H5  C2  O1  N1  H1  C1  
H5  C2  O1  C1  H5  H5  O2  H6  N1  H1  C1  H5  H5  C2  O1  N1  H1  C1  H5  H5  
C2  O1  N1  H1  C1  H5  C2  O1  C1  H3  H3  C2  C2  H7  C2  N1  H1  C2  C2  H4  
C2  H4  C2  H4  C2  H4  N1  H1  C1  H5  H5  C2  O1  N1  H1  C1  H5  C2  O1  C1  
H3  H3  C2  O1  O1  O1  
%FLAG TREE_CHAIN_CLASSIFICATION
%FORMAT(20a4)
BLA BLA BLA BLA BLA BLA BLA BLA BLA BLA BLA BLA BLA BLA BLA BLA BLA BLA BLA BLA 
BLA BLA BLA BLA BLA BLA BLA BLA BLA BLA BLA BLA BLA BLA BLA BLA BLA BLA BLA BLA 
BLA BLA BLA BLA BLA BLA BLA BLA BLA BLA BLA BLA BLA BLA BLA BLA BLA BLA BLA BLA 
BLA BLA BLA BLA BLA BLA BLA BLA BLA BLA BLA BLA BLA BLA BLA BLA BLA BLA BLA BLA 
BLA BLA BLA BLA BLA BLA BLA BLA BLA BLA BLA BLA BLA BLA BLA BLA BLA BLA BLA BLA 
BLA BLA BLA BLA BLA BLA BLA BLA BLA BLA BLA BLA BLA BLA BLA BLA BLA BLA BLA BLA 
BLA BLA BLA BLA BLA BLA BLA BLA BLA BLA BLA BLA BLA BLA BLA BLA BLA BLA BLA BLA 
BLA BLA BLA BLA BLA BLA BLA BLA BLA BLA BLA BLA BLA BLA BLA BLA BLA BLA BLA BLA 
BLA BLA BLA BLA BLA BLA BLA BLA BLA BLA BLA BLA BLA BLA BLA BLA BLA BLA BLA BLA 
BLA BLA BLA BLA BLA BLA BLA BLA BLA BLA BLA BLA BLA BLA BLA BLA BLA BLA BLA BLA 
BLA BLA BLA BLA BLA BLA BLA BLA BLA BLA BLA BLA BLA BLA BLA BLA BLA BLA BLA BLA 
BLA BLA BLA BLA BLA BLA BLA BLA BLA BLA BLA BLA BLA BLA BLA BLA BLA BLA BLA BLA 
BLA BLA BLA BLA BLA BLA BLA BLA BLA BLA BLA BLA BLA BLA BLA BLA BLA BLA BLA BLA 
BLA BLA BLA BLA BLA BLA BLA BLA BLA BLA BLA BLA BLA BLA BLA BLA BLA BLA BLA BLA 
BLA BLA BLA BLA BLA BLA 
%FLAG JOIN_ARRAY
%FORMAT(10I8)
       0       0       0       0       0       0       0       0       0       0
       0       0       0       0       0       0       0       0       0       0
       0       0       0       0       0       0       0       0       0       0
       0       0       0       0       0       0       0       0       0       0
       0       0       0       0       0       0       0       0       0       0
       0       0       0       0       0       0       0       0       0       0
       0       0       0       0       0       0       0       0       0       0
       0       0       0       0       0       0       0       0       0       0
       0       0       0       0       0       0       0       0       0       0
       0       0       0       0       0       0       0       0       0       0
       0       0       0       0       0       0       0       0       0       0
       0       0       0       0       0       0       0       0       0       0
       0       0       0       0       0       0       0       0       0       0
       0       0       0       0       0       0       0       0       0       0
       0       0       0       0       0       0       0       0       0       0
       0       0       0       0       0       0       0       0       0       0
       0       0       0       0       0       0       0       0       0       0
       0       0       0       0       0       0       0       0       0       0
       0       0       0       0       0       0       0       0       0       0
       0       0       0       0       0       0       0       0       0       0
       0       0       0       0       0       0       0       0       0       0
       0       0       0       0       0       0       0       0       0       0
       0       0       0       0       0       0       0       0       0       0
       0       0       0       0       0       0       0       0       0       0
       0       0       0       0       0       0       0       0       0       0
       0       0       0       0       0       0       0       0       0       0
       0       0       0       0       0       0       0       0       0       0
       0       0       0       0       0       0       0       0       0       0
       0       0       0       0       0       0
%FLAG IROTAT
%FORMAT(10I8)
       0       0       0       0       0       0       0       0       0       0
       0       0       0       0       0       0       0       0       0       0
       0       0       0       0       0       0       0       0       0       0
       0       0       0       0       0       0       0       0       0       0
       0       0       0       0       0       0       0       0       0       0
       0       0       0       0       0       0       0       0       0       0
       0       0       0       0       0       0       0       0       0       0
       0       0       0       0       0       0       0       0       0       0
       0       0       0       0       0       0       0       0       0       0
       0       0       0       0       0       0       0       0       0       0
       0       0       0       0       0       0       0       0       0       0
       0       0       0       0       0       0       0       0       0       0
       0       0       0       0       0       0       0       0       0       0
       0       0       0       0       0       0       0       0       0       0
       0       0       0       0       0       0       0       0       0       0
       0       0       0       0       0       0       0       0       0       0
       0       0       0       0       0       0       0       0       0       0
       0       0       0       0       0       0       0       0       0       0
       0       0       0       0       0       0       0       0       0       0
       0       0       0       0       0       0       0       0       0       0
       0       0       0       0       0       0       0       0       0       0
       0       0       0       0       0       0       0       0       0       0
       0       0       0       0       0       0       0       0       0       0
       0       0       0       0       0       0       0       0       0       0
       0       0       0       0       0       0       0       0       0       0
       0       0       0       0       0       0       0       0       0       0
       0       0       0       0       0       0       0       0       0       0
       0       0       0       0       0       0       0       0       0       0
       0       0       0       0       0       0
%FLAG RADIUS_SET
%FORMAT(1a80)
H(N)-modified Bondi radii (mbondi2)                                             
%FLAG RADII
%FORMAT(5E16.8)
  1.55000000E+00  1.30000000E+00  1.30000000E+00  1.30000000E+00  1.70000000E+00
  1.20000000E+00  1.70000000E+00  1.50000000E+00  1.70000000E+00  1.20000000E+00
  1.20000000E+00  1.70000000E+00  1.70000000E+00  1.20000000E+00  1.70000000E+00
  1.20000000E+00  1.70000000E+00  1.20000000E+00  1.70000000E+00  1.20000000E+00
  1.70000000E+00  1.20000000E+00  1.55000000E+00  1.30000000E+00  1.70000000E+00
  1.20000000E+00  1.20000000E+00  1.70000000E+00  1.50000000E+00  1.55000000E+00
  1.30000000E+00  1.70000000E+00  1.20000000E+00  1.70000000E+00  1.50000000E+00
  1.70000000E+00  1.20000000E+00  1.20000000E+00  1.70000000E+00  1.20000000E+00
  1.20000000E+00  1.70000000E+00  1.20000000E+00  1.20000000E+00  1.55000000E+00
  1.30000000E+00  1.70000000E+00  1.55000000E+00  1.30000000E+00  1.30000000E+00
  1.55000000E+00  1.30000000E+00  1.30000000E+00  1.55000000E+00  1.30000000E+00
  1.70000000E+00  1.20000000E+00  1.20000000E+00  1.70000000E+00  1.50000000E+00
  1.55000000E+00  1.30000000E+00  1.70000000E+00  1.20000000E+00  1.70000000E+00
  1.50000000E+00  1.70000000E+00  1.20000000E+00  1.20000000E+00  1.70000000E+00
  1.20000000E+00  1.20000000E+00  1.70000000E+00  1.20000000E+00  1.20000000E+00
  1.70000000E+00  1.20000000E+00  1.20000000E+00  1.55000000E+00  1.30000000E+00
  1.30000000E+00  1.30000000E+00  1.55000000E+00  1.30000000E+00  1.70000000E+00
  1.20000000E+00  1.20000000E+00  1.70000000E+00  1.50000000E+00  1.55000000E+00
  1.30000000E+00  1.70000000E+00  1.20000000E+00  1.20000000E+00  1.70000000E+00
  1.50000000E+00  1.55000000E+00  1.30000000E+00  1.70000000E+00  1.20000000E+00
  1.20000000E+00  1.70000000E+00  1.50000000E+00  1.55000000E+00  1.30000000E+00
  1.70000000E+00  1.20000000E+00  1.70000000E+00  1.50000000E+00  1.70000000E+00
  1.20000000E+00  1.20000000E+00  1.70000000E+00  1.50000000E+00  1.50000000E+00
  1.55000000E+00  1.30000000E+00  1.70000000E+00  1.20000000E+00  1.20000000E+00
  1.70000000E+00  1.50000000E+00  1.55000000E+00  1.30000000E+00  1.70000000E+00
  1.20000000E+00  1.70000000E+00  1.50000000E+00  1.70000000E+00  1.20000000E+00
  1.20000000E+00  1.70000000E+00  1.20000000E+00  1.20000000E+00  1.70000000E+00
  1.50000000E+00  1.50000000E+00  1.55000000E+00  1.30000000E+00  1.70000000E+00
  1.20000000E+00  1.20000000E+00  1.70000000E+00  1.50000000E+00  1.55000000E+00
  1.30000000E+00  1.70000000E+00  1.20000000E+00  1.70000000E+00  1.50000000E+00
  1.70000000E+00  1.20000000E+00  1.70000000E+00  1.20000000E+00  1.20000000E+00
  1.70000000E+00  1.20000000E+00  1.20000000E+00  1.20000000E+00  1.70000000E+00
  1.20000000E+00  1.20000000E+00  1.20000000E+00  1.55000000E+00  1.30000000E+00
  1.70000000E+00  1.20000000E+00  1.20000000E+00  1.70000000E+00  1.50000000E+00
  1.55000000E+00  1.30000000E+00  1.70000000E+00  1.20000000E+00  1.20000000E+00
  1.70000000E+00  1.50000000E+00  1.55000000E+00  1.30000000E+00  1.70000000E+00
  1.20000000E+00  1.20000000E+00  1.70000000E+00  1.50000000E+00  1.55000000E+00
  1.30000000E+00  1.70000000E+00  1.20000000E+00  1.70000000E+00  1.50000000E+00
  1.70000000E+00  1.20000000E+00  1.20000000E+00  1.70000000E+00  1.20000000E+00
  1.70000000E+00  1.20000000E+00  1.20000000E+00  1.20000000E+00  1.70000000E+00
  1.20000000E+00  1.20000000E+00  1.20000000E+00  1.55000000E+00  1.30000000E+00
  1.70000000E+00  1.20000000E+00  1.20000000E+00  1.70000000E+00  1.50000000E+00
  1.55000000E+00  1.30000000E+00  1.70000000E+00  1.20000000E+00  1.20000000E+00
  1.70000000E+00  1.50000000E+00  1.55000000E+00  1.30000000E+00  1.70000000E+00
  1.20000000E+00  1.70000000E+00  1.50000000E+00  1.70000000E+00  1.20000000E+00
  1.20000000E+00  1.50000000E+00  1.20000000E+00  1.55000000E+00  1.30000000E+00
  1.70000000E+00  1.20000000E+00  1.20000000E+00  1.70000000E+00  1.50000000E+00
  1.55000000E+00  1.30000000E+00  1.70000000E+00  1.20000000E+00  1.20000000E+00
  1.70000000E+00  1.50000000E+00  1.55000000E+00  1.30000000E+00  1.70000000E+00
  1.20000000E+00  1.70000000E+00  1.50000000E+00  1.70000000E+00  1.20000000E+00
  1.20000000E+00  1.70000000E+00  1.70000000E+00  1.20000000E+00  1.70000000E+00
  1.55000000E+00  1.30000000E+00  1.70000000E+00  1.70000000E+00  1.20000000E+00
  1.70000000E+00  1.20000000E+00  1.70000000E+00  1.20000000E+00  1.70000000E+00
  1.20000000E+00  1.55000000E+00  1.30000000E+00  1.70000000E+00  1.20000000E+00
  1.20000000E+00  1.70000000E+00  1.50000000E+00  1.55000000E+00  1.30000000E+00
  1.70000000E+00  1.20000000E+00  1.70000000E+00  1.50000000E+00  1.70000000E+00
  1.20000000E+00  1.20000000E+00  1.70000000E+00  1.50000000E+00  1.50000000E+00
  1.50000000E+00
%FLAG SCREEN
%FORMAT(5E16.8)
  7.90000000E-01  8.50000000E-01  8.50000000E-01  8.50000000E-01  7.20000000E-01
  8.50000000E-01  7.20000000E-01  8.50000000E-01  7.20000000E-01  8.50000000E-01
  8.50000000E-01  7.20000000E-01  7.20000000E-01  8.50000000E-01  7.20000000E-01
  8.50000000E-01  7.20000000E-01  8.50000000E-01  7.20000000E-01  8.50000000E-01
  7.20000000E-01  8.50000000E-01  7.90000000E-01  8.50000000E-01  7.20000000E-01
  8.50000000E-01  8.50000000E-01  7.20000000E-01  8.50000000E-01  7.90000000E-01
  8.50000000E-01  7.20000000E-01  8.50000000E-01  7.20000000E-01  8.50000000E-01
  7.20000000E-01  8.50000000E-01  8.50000000E-01  7.20000000E-01  8.50000000E-01
  8.50000000E-01  7.20000000E-01  8.50000000E-01  8.50000000E-01  7.90000000E-01
  8.50000000E-01  7.20000000E-01  7.90000000E-01  8.50000000E-01  8.50000000E-01
  7.90000000E-01  8.50000000E-01  8.50000000E-01  7.90000000E-01  8.50000000E-01
  7.20000000E-01  8.50000000E-01  8.50000000E-01  7.20000000E-01  8.50000000E-01
  7.90000000E-01  8.50000000E-01  7.20000000E-01  8.50000000E-01  7.20000000E-01
  8.50000000E-01  7.20000000E-01  8.50000000E-01  8.50000000E-01  7.20000000E-01
  8.50000000E-01  8.50000000E-01  7.20000000E-01  8.50000000E-01  8.50000000E-01
  7.20000000E-01  8.50000000E-01  8.50000000E-01  7.90000000E-01  8.50000000E-01
  8.50000000E-01  8.50000000E-01  7.90000000E-01  8.50000000E-01  7.20000000E-01
  8.50000000E-01  8.50000000E-01  7.20000000E-01  8.50000000E-01  7.90000000E-01
  8.50000000E-01  7.20000000E-01  8.50000000E-01  8.50000000E-01  7.20000000E-01
  8.50000000E-01  7.90000000E-01  8.50000000E-01  7.20000000E-01  8.50000000E-01
  8.50000000E-01  7.20000000E-01  8.50000000E-01  7.90000000E-01  8.50000000E-01
  7.20000000E-01  8.50000000E-01  7.20000000E-01  8.50000000E-01  7.20000000E-01
  8.50000000E-01  8.50000000E-01  7.20000000E-01  8.50000000E-01  8.50000000E-01
  7.90000000E-01  8.50000000E-01  7.20000000E-01  8.50000000E-01  8.50000000E-01
  7.20000000E-01  8.50000000E-01  7.90000000E-01  8.50000000E-01  7.20000000E-01
  8.50000000E-01  7.20000000E-01  8.50000000E-01  7.20000000E-01  8.50000000E-01
  8.50000000E-01  7.20000000E-01  8.50000000E-01  8.50000000E-01  7.20000000E-01
  8.50000000E-01  8.50000000E-01  7.90000000E-01  8.50000000E-01  7.20000000E-01
  8.50000000E-01  8.50000000E-01  7.20000000E-01  8.50000000E-01  7.90000000E-01
  8.50000000E-01  7.20000000E-01  8.50000000E-01  7.20000000E-01  8.50000000E-01
  7.20000000E-01  8.50000000E-01  7.20000000E-01  8.50000000E-01  8.50000000E-01
  7.20000000E-01  8.50000000E-01  8.50000000E-01  8.50000000E-01  7.20000000E-01
  8.50000000E-01  8.50000000E-01  8.50000000E-01  7.90000000E-01  8.50000000E-01
  7.20000000E-01  8.50000000E-01  8.50000000E-01  7.20000000E-01  8.50000000E-01
  7.90000000E-01  8.50000000E-01  7.20000000E-01  8.50000000E-01  8.50000000E-01
  7.20000000E-01  8.50000000E-01  7.90000000E-01  8.50000000E-01  7.20000000E-01
  8.50000000E-01  8.50000000E-01  7.20000000E-01  8.50000000E-01  7.90000000E-01
  8.50000000E-01  7.20000000E-01  8.50000000E-01  7.20000000E-01  8.50000000E-01
  7.20000000E-01  8.50000000E-01  8.50000000E-01  7.20000000E-01  8.50000000E-01
  7.20000000E-01  8.50000000E-01  8.50000000E-01  8.50000000E-01  7.20000000E-01
  8.50000000E-01  8.50000000E-01  8.50000000E-01  7.90000000E-01  8.50000000E-01
  7.20000000E-01  8.50000000E-01  8.50000000E-01  7.20000000E-01  8.50000000E-01
  7.90000000E-01  8.50000000E-01  7.20000000E-01  8.50000000E-01  8.50000000E-01
  7.20000000E-01  8.50000000E-01  7.90000000E-01  8.50000000E-01  7.20000000E-01
  8.50000000E-01  7.20000000E-01  8.50000000E-01  7.20000000E-01  8.50000000E-01
  8.50000000E-01  8.50000000E-01  8.50000000E-01  7.90000000E-01  8.50000000E-01
  7.20000000E-01  8.50000000E-01  8.50000000E-01  7.20000000E-01  8.50000000E-01
  7.90000000E-01  8.50000000E-01  7.20000000E-01  8.50000000E-01  8.50000000E-01
  7.20000000E-01  8.50000000E-01  7.90000000E-01  8.50000000E-01  7.20000000E-01
  8.50000000E-01  7.20000000E-01  8.50000000E-01  7.20000000E-01  8.50000000E-01
  8.50000000E-01  7.20000000E-01  7.20000000E-01  8.50000000E-01  7.20000000E-01
  7.90000000E-01  8.50000000E-01  7.20000000E-01  7.20000000E-01  8.50000000E-01
  7.20000000E-01  8.50000000E-01  7.20000000E-01  8.50000000E-01  7.20000000E-01
  8.50000000E-01  7.90000000E-01  8.50000000E-01  7.20000000E-01  8.50000000E-01
  8.50000000E-01  7.20000000E-01  8.50000000E-01  7.90000000E-01  8.50000000E-01
  7.20000000E-01  8.50000000E-01  7.20000000E-01  8.50000000E-01  7.20000000E-01
  8.50000000E-01  8.50000000E-01  7.20000000E-01  8.50000000E-01  8.50000000E-01
  8.50000000E-01
%FLAG IPOL
%FORMAT(1I8)
       0
