
  542  0.0000000e+00
  -0.7800000 -12.3300000   1.7700000  -0.1200000 -11.6900000   1.3600000
  -0.7600000 -13.0600000   1.0700000  -0.3900000 -12.6400000   2.6500000
  -2.0900000 -11.6900000   1.9700000  -2.7200000 -12.4400000   2.4400000
  -2.8500000 -11.5700000   0.6600000  -3.9300000 -12.0900000   0.5800000
  -2.0300000 -10.2400000   2.6900000  -3.0200000  -9.8300000   2.5000000
  -1.2100000  -9.6600000   2.2800000  -2.0700000 -10.4200000   4.2600000
  -1.7800000  -9.4500000   4.6900000  -1.2600000 -11.0700000   4.5800000
  -3.3600000 -10.8600000   4.9300000  -4.1400000 -10.1400000   4.6800000
  -3.6900000 -11.8300000   4.5400000  -3.2400000 -11.0200000   6.4200000
  -3.3900000 -10.1600000   6.9300000  -3.1900000 -12.1300000   7.1200000
  -2.8600000 -13.2700000   6.4500000  -2.6500000 -13.4100000   5.4700000
  -3.0300000 -14.1200000   6.9600000  -3.3600000 -12.0400000   8.3400000
  -3.5400000 -11.1900000   8.8600000  -3.0500000 -12.8200000   8.9200000
  -2.2500000 -10.8700000  -0.3300000  -1.2600000 -10.7200000  -0.2100000
  -2.8800000 -10.7900000  -1.7000000  -3.8900000 -11.1900000  -1.6900000
  -2.0600000 -11.6200000  -2.7300000  -2.5200000 -11.8600000  -3.8700000
  -3.0700000  -9.4100000  -2.3300000  -2.1400000  -9.1700000  -2.8600000
  -3.9100000  -9.4400000  -3.0200000  -3.3800000  -8.2700000  -1.3400000
  -2.4800000  -8.1100000  -0.7400000  -3.5300000  -6.9900000  -2.1400000
  -4.3700000  -6.9700000  -2.8300000  -3.5300000  -6.1600000  -1.4400000
  -2.6700000  -6.8500000  -2.8000000  -4.6300000  -8.4400000  -0.4500000
  -5.5100000  -8.3700000  -1.0900000  -4.7100000  -7.6600000   0.3000000
  -4.6900000  -9.4200000   0.0100000  -0.8500000 -12.0600000  -2.3300000
  -0.4400000 -11.8300000  -1.4300000   0.0600000 -12.8900000  -3.1500000
   0.1600000 -12.3600000  -4.1000000  -0.5000000 -14.2900000  -3.3900000
  -1.3500000 -14.7100000  -2.5800000   1.4100000 -12.9200000  -2.4400000
   1.2500000 -13.4700000  -1.5100000   2.1000000 -13.3800000  -3.1500000
   1.9400000 -11.5600000  -2.1100000   3.0200000 -11.4700000  -2.1800000
   1.4600000 -10.8600000  -2.8000000   1.5900000 -11.0500000  -0.6700000
   2.5300000 -10.4000000  -0.0900000   0.4800000 -11.1700000  -0.1300000
  -0.1600000 -14.8700000  -4.4900000   0.6300000 -14.4900000  -4.9900000
  -0.9000000 -15.9600000  -5.1600000  -0.9200000 -16.7000000  -4.3600000
  -0.2900000 -16.3000000  -5.9900000  -2.3400000 -15.7900000  -5.7000000
  -2.8200000 -16.4400000  -6.6400000  -3.0700000 -14.9500000  -4.9900000
  -2.6500000 -14.5400000  -4.1700000  -4.5000000 -14.6200000  -5.1100000
  -5.0300000 -15.5300000  -5.3700000  -4.7300000 -13.7000000  -6.3100000
  -5.5500000 -13.8800000  -7.1900000  -5.1400000 -14.0900000  -3.7900000
  -4.5800000 -13.2100000  -3.4700000  -5.0200000 -15.1000000  -2.6500000
  -4.2000000 -15.7800000  -2.8900000  -5.8700000 -15.7800000  -2.6000000
  -6.5700000 -13.6700000  -4.0200000  -7.0800000 -13.3500000  -3.1100000
  -6.6400000 -12.8700000  -4.7600000  -7.1400000 -14.5200000  -4.3700000
  -4.7400000 -14.5500000  -1.2700000  -3.8200000 -13.9600000  -1.2500000
  -5.5400000 -13.8500000  -1.0100000  -4.6300000 -15.2600000  -0.4500000
  -3.8900000 -12.7200000  -6.4700000  -3.2100000 -12.5800000  -5.7300000
  -3.5300000 -11.9700000  -7.6700000  -4.3300000 -12.0900000  -8.4100000
  -2.2700000 -12.4800000  -8.3000000  -1.5600000 -13.3500000  -7.7600000
  -3.3700000 -10.4600000  -7.2500000  -3.4000000  -9.8400000  -8.1500000
  -2.3900000 -10.3400000  -6.7900000  -4.3600000  -9.8200000  -6.2800000
  -4.4000000 -10.4900000  -5.4200000  -3.8200000  -8.5000000  -5.7400000
  -4.6000000  -8.1300000  -5.0800000  -2.9400000  -8.7500000  -5.1500000
  -3.5800000  -7.9200000  -6.6300000  -5.7500000  -9.6300000  -6.8600000
  -6.0000000 -10.5000000  -7.4600000  -5.7800000  -8.7200000  -7.4600000
  -6.4400000  -9.5400000  -6.0200000  -1.9900000 -12.0600000  -9.5900000
  -2.6400000 -11.4000000 -10.0000000  -0.5800000 -12.1300000 -10.1200000
  -0.1400000 -13.1200000  -9.9600000   0.2800000 -11.0000000  -9.5100000
  -0.1800000 -10.1200000  -8.7700000  -0.5700000 -11.9600000 -11.6300000
   0.4500000 -11.9900000 -12.0100000  -1.1300000 -12.7900000 -12.0500000
  -1.1600000 -10.6700000 -12.1600000  -2.2400000 -10.6400000 -12.7600000
  -0.4900000  -9.6300000 -11.9000000   1.5900000 -11.1300000  -9.6900000
   1.9900000 -11.8900000 -10.2200000   2.5500000 -10.2800000  -8.9500000
   2.3500000 -10.3500000  -7.8900000   2.3900000  -8.7900000  -9.2200000
   2.2700000  -7.9700000  -8.3000000   4.0200000 -10.7500000  -9.2100000
   4.6800000 -10.0700000  -8.6600000   4.2000000 -10.7100000 -10.2800000
   4.4100000 -12.1700000  -8.7500000   3.5700000 -12.8300000  -8.0900000
   5.5400000 -12.6300000  -8.9500000   2.3100000  -8.3800000 -10.5000000
   2.3200000  -9.1400000 -11.1700000   2.1700000  -7.0100000 -10.8900000
   3.0700000  -6.5100000 -10.5500000   0.8800000  -6.4100000 -10.3400000
   0.8800000  -5.2600000  -9.8800000   2.2300000  -6.8300000 -12.3900000
   2.9600000  -7.5100000 -12.8400000   2.7100000  -5.8600000 -12.5800000
   1.1000000  -7.1300000 -13.1800000   1.1400000  -6.4500000 -13.8500000
  -0.2900000  -7.1600000 -10.3400000  -0.4600000  -8.0400000 -10.8100000
  -1.5600000  -6.7100000  -9.7800000  -1.8900000  -5.7000000 -10.0400000
  -1.4600000  -6.6100000  -8.2100000  -1.9900000  -5.6200000  -7.6500000
  -2.6400000  -7.7000000 -10.1200000  -2.3300000  -8.6200000  -9.6400000
  -2.7700000  -7.9100000 -11.5000000  -2.0100000  -8.4200000 -11.8100000
  -4.0200000  -7.1100000  -9.6800000  -4.5100000  -7.9100000  -9.1100000
  -3.9700000  -6.2500000  -9.0100000  -4.6300000  -6.9200000 -10.5600000
  -0.7000000  -7.4300000  -7.5100000  -0.2800000  -8.1900000  -8.0300000
  -0.4300000  -7.3600000  -6.0600000  -1.3600000  -7.3500000  -5.4800000
   0.2900000  -6.0800000  -5.6700000  -0.0500000  -5.4200000  -4.6800000
   0.2900000  -8.6000000  -5.6200000  -0.4500000  -9.3700000  -5.3900000
   0.8600000  -9.0000000  -6.4600000   1.2100000  -8.5000000  -4.4600000
   2.6300000  -8.6800000  -4.5700000   3.0200000  -8.8600000  -5.5600000
   0.6400000  -8.1400000  -3.2300000  -0.3900000  -7.8400000  -3.1500000
   3.4600000  -8.4600000  -3.4600000   4.5100000  -8.6900000  -3.3900000
   1.3900000  -7.9500000  -2.0900000   0.9300000  -7.7500000  -1.1300000
   2.8100000  -8.0800000  -2.2400000   3.5200000  -8.0600000  -1.0900000
   3.4000000  -8.9000000  -0.6300000   1.3400000  -5.7300000  -6.4200000
   1.6800000  -6.4200000  -7.0600000   2.2000000  -4.5200000  -6.3100000
   2.6400000  -4.4800000  -5.3100000   1.5000000  -3.2300000  -6.6700000
   1.6600000  -2.2300000  -5.9700000   3.4400000  -4.7200000  -7.2700000
   3.0300000  -4.8200000  -8.2800000   4.0000000  -3.7900000  -7.2100000
   4.3800000  -5.8400000  -6.7800000   3.8100000  -6.7500000  -6.6400000
   4.6800000  -5.5300000  -5.7800000   5.5800000  -6.0400000  -7.7700000
   5.1800000  -6.0600000  -8.7900000   6.2800000  -5.2200000  -7.6700000
   6.2000000  -7.4100000  -7.3900000   6.6200000  -7.3600000  -6.3900000
   5.4400000  -8.1800000  -7.3800000   7.3300000  -7.8200000  -8.3000000
   7.5100000  -8.8100000  -8.3600000   8.1900000  -7.3700000  -8.0000000
   7.1600000  -7.6000000  -9.2700000   0.6600000  -3.3900000  -7.6800000
   0.6900000  -4.2500000  -8.2000000  -0.2000000  -2.2900000  -8.1200000
   0.4100000  -1.4100000  -8.3200000  -1.1000000  -1.7800000  -7.0200000
  -1.1800000  -0.5900000  -6.6800000  -0.9300000  -2.6200000  -9.4400000
  -1.6500000  -3.4300000  -9.3300000  -1.4400000  -1.7300000  -9.8000000
  -0.1500000  -2.8300000 -10.1600000  -1.6300000  -2.7900000  -6.3100000
  -1.5700000  -3.7500000  -6.6200000  -2.4400000  -2.4400000  -5.1600000
  -3.1200000  -1.6300000  -5.4200000  -1.6200000  -1.9700000  -3.9000000
  -1.9000000  -0.9200000  -3.3600000  -3.4100000  -3.5900000  -4.7600000
  -2.7900000  -4.4900000  -4.7200000  -4.3100000  -3.8300000  -5.9300000
  -3.7200000  -3.9000000  -6.8400000  -5.1800000  -3.1700000  -5.9400000
  -4.0800000  -3.5400000  -3.3800000  -3.3400000  -3.4700000  -2.5800000
  -4.7700000  -4.3600000  -3.1600000  -4.5100000  -2.5400000  -3.3700000
  -4.9200000  -5.3200000  -5.9100000  -5.8000000  -5.3400000  -5.2700000
  -4.1300000  -5.9500000  -5.5100000  -5.2900000  -5.5700000  -6.9100000
  -0.5900000  -2.6700000  -3.5600000  -0.2800000  -3.4300000  -4.1500000
   0.3800000  -2.3600000  -2.4300000  -0.1000000  -2.4500000  -1.4600000
   1.0000000  -0.9200000  -2.5900000   1.0400000  -0.1400000  -1.6400000
   1.4400000  -3.4400000  -2.5100000   2.2200000  -3.2800000  -1.7600000
   1.8900000  -3.5400000  -3.5000000   0.8100000  -4.6600000  -2.1900000
   0.5500000  -5.0800000  -3.0100000   1.3500000  -0.5400000  -3.8500000
   1.1800000  -1.1500000  -4.6400000   1.9900000   0.7300000  -4.0800000
   2.6700000   0.8800000  -3.2400000   1.0300000   1.9200000  -4.0800000
   1.4800000   3.0500000  -3.8800000   2.9200000   0.7000000  -5.2600000
   3.7600000   0.0600000  -4.9900000   3.2600000   1.7300000  -5.3500000
   2.3400000   0.3000000  -6.5700000   2.2100000  -0.6500000  -6.5500000
  -0.2400000   1.7000000  -4.2800000  -0.5100000   0.7900000  -4.6000000
  -1.3600000   2.6100000  -3.9600000  -1.0900000   3.5300000  -4.4800000
  -1.5900000   2.8200000  -2.4700000  -1.3500000   3.9500000  -1.9800000
  -2.6400000   2.1500000  -4.6700000  -2.6200000   2.4500000  -5.7200000
  -2.6400000   1.0600000  -4.6100000  -3.9400000   2.4900000  -4.0700000
  -4.5500000   3.7300000  -4.3200000  -3.9800000   4.4000000  -4.9400000
  -4.6700000   1.5500000  -3.3300000  -4.2900000   0.5500000  -3.1900000
  -5.8800000   4.0200000  -3.8400000  -6.4000000   4.9200000  -4.1200000
  -5.9700000   1.8800000  -2.7400000  -6.5600000   1.1200000  -2.2500000
  -6.5400000   3.1100000  -2.9800000  -7.4800000   3.4400000  -2.5700000
  -1.8700000   1.7300000  -1.7400000  -1.8100000   0.8400000  -2.2100000
  -1.8300000   1.8400000  -0.2900000  -2.6200000   2.5500000  -0.0500000
  -0.6300000   2.5100000   0.4100000  -0.7500000   3.3200000   1.3300000
  -2.1600000   0.5200000   0.3200000  -1.3600000  -0.1600000   0.0400000
  -2.0200000   0.6600000   1.4000000  -3.5600000   0.0500000  -0.0300000
  -3.9200000  -0.9800000  -0.8100000  -3.1600000  -1.5900000  -1.2600000
  -4.8900000   0.6500000   0.3400000  -5.2700000  -1.1100000  -0.8700000
  -5.7800000  -1.6900000  -1.5300000  -5.9500000  -0.2000000  -0.0900000
  -5.3100000   1.7900000   1.0800000  -4.5200000   2.3600000   1.5500000
  -7.2700000   0.1300000   0.0300000  -8.0400000  -0.5200000  -0.3600000
  -6.7100000   2.0800000   1.2500000  -7.0600000   2.8900000   1.8700000
  -7.7300000   1.2900000   0.6700000  -8.7700000   1.5600000   0.8200000
   0.5800000   2.2600000  -0.1200000   0.6300000   1.6600000  -0.9300000
   1.8800000   2.7700000   0.3400000   2.0700000   2.5600000   1.4000000
   1.9600000   4.3300000   0.3000000   2.1000000   5.0900000   1.2500000
   3.0400000   2.2100000  -0.5200000   3.1200000   1.1200000  -0.4600000
   2.7400000   2.3800000  -1.5600000   4.3800000   2.9200000  -0.3100000
   4.5700000   3.1900000   0.7300000   4.3200000   3.8200000  -0.9300000
   5.5000000   1.9100000  -0.7400000   5.4300000   1.2500000  -1.8100000
   6.5000000   2.0100000   0.0000000   1.6900000   4.8300000  -0.9100000
   1.5100000   4.1800000  -1.6600000   1.6700000   6.2300000  -1.2400000
   2.5700000   6.6700000  -0.8000000   0.4800000   6.9700000  -0.5700000
   0.7100000   8.0500000   0.0000000   1.6900000   6.5300000  -2.7500000
   0.7600000   6.2200000  -3.2400000   1.6400000   7.6100000  -2.8300000
   2.9400000   6.0700000  -3.5500000   2.9000000   4.9900000  -3.4300000
   3.8500000   6.5300000  -3.1500000   2.8900000   6.3500000  -5.0900000
   3.3600000   7.2700000  -5.4100000   1.8800000   6.5100000  -5.4700000
   3.5600000   5.1800000  -5.8600000   2.7800000   4.4100000  -5.9000000
   4.3500000   4.8100000  -5.2100000   4.0300000   5.6600000  -7.2100000
   3.2800000   5.8200000  -7.8700000   4.6000000   4.9500000  -7.6500000
   4.5500000   6.5200000  -7.1500000  -0.6800000   6.3500000  -0.2500000
  -0.8400000   5.5100000  -0.7900000  -1.7900000   6.8900000   0.6200000
  -2.0000000   7.8800000   0.2300000  -1.3900000   7.0800000   2.1100000
  -1.8600000   7.9400000   2.8300000  -3.0800000   6.0400000   0.5500000
  -3.7100000   6.2800000   1.4000000  -2.9600000   4.9600000   0.5800000
  -3.7300000   6.4200000  -0.8400000  -3.0100000   6.1400000  -1.6100000
  -3.8500000   7.5000000  -0.9200000  -5.1200000   5.7000000  -1.0600000
  -5.4800000   5.7400000  -2.0800000  -4.9000000   4.6300000  -0.9600000
  -6.1400000   6.2300000  -0.0400000  -6.3800000   5.7600000   0.8300000
  -6.7900000   7.3300000  -0.1800000  -6.5500000   8.1700000  -1.1400000
  -7.0100000   9.0700000  -1.1500000  -5.6700000   7.9700000  -1.5900000
  -7.6700000   7.5900000   0.7300000  -7.9600000   6.9400000   1.4500000
  -8.3200000   8.3400000   0.5100000  -0.5400000   6.1800000   2.5800000
  -0.1700000   5.5200000   1.9000000  -0.1400000   5.9300000   3.9900000
  -0.9400000   6.3400000   4.6000000   1.0200000   6.9200000   4.2800000
   0.9100000   7.6000000   5.2700000   0.0800000   4.4100000   4.1600000
   0.5000000   4.0400000   3.2300000  -1.3100000   3.7800000   4.3800000
  -1.9300000   3.9900000   3.5100000  -1.8000000   4.2800000   5.2200000
   1.0200000   4.0200000   5.2700000   1.2200000   2.9600000   5.0900000
   0.5100000   4.1300000   6.2300000   1.9600000   4.5700000   5.2700000
  -1.4300000   2.2600000   4.4300000  -0.7600000   1.8400000   3.6700000
  -2.3800000   1.8400000   4.1000000  -1.1200000   1.9100000   5.4100000
   2.0100000   7.0400000   3.4300000   2.0000000   6.4600000   2.6000000
   3.0400000   8.0500000   3.5000000   3.4300000   7.8400000   4.5000000
   2.4200000   9.4300000   3.3000000   2.7300000  10.3400000   4.0700000
   4.1300000   7.7800000   2.5100000   3.7500000   7.6200000   1.4900000
   4.8200000   8.6200000   2.5000000   4.9900000   6.5300000   2.8300000
   4.3000000   5.7000000   3.0100000   5.5000000   6.7800000   3.7500000
   5.9100000   6.2200000   1.6100000   5.2900000   5.9900000   0.7400000
   6.3900000   7.1500000   1.3100000   6.8600000   5.0300000   1.8900000
   7.5400000   5.3200000   2.6900000   6.2800000   4.1500000   2.1700000
   7.5900000   4.6300000   0.6500000   8.5100000   4.2700000   0.8700000
   7.0800000   3.8800000   0.1900000   7.7900000   5.3500000  -0.0200000
   1.4800000   9.6700000   2.3600000   1.1500000   8.8900000   1.8000000
   0.8200000  10.9900000   2.2000000   1.6300000  11.7100000   2.3500000
  -0.2700000  11.2900000   3.2500000  -0.8700000  12.3800000   3.2100000
   0.3200000  11.1400000   0.7500000   1.1400000  10.8300000   0.1000000
   0.0800000  12.1900000   0.6000000  -0.8300000  10.3200000   0.5500000
  -0.4200000   9.5400000   0.1700000  -0.5100000  10.3700000   4.2700000
  -0.0700000   9.4700000   4.1700000  -1.1800000  10.5400000   5.5400000
  -1.9600000  11.2900000   5.4800000  -0.1400000  11.1300000   6.6100000
  -0.5800000  11.9600000   7.4000000  -1.9000000   9.3200000   6.0200000
  -1.2500000   8.4400000   5.9700000  -2.0500000   9.4200000   7.1000000
  -3.3100000   9.0800000   5.4100000  -3.7000000   9.8500000   4.4600000
  -4.0600000   8.1100000   5.7900000   1.1600000  10.8400000   6.6600000
   1.5500000  10.1100000   6.0900000   2.1500000  11.4200000   7.6300000
   1.8600000  11.0000000   8.5900000   2.1600000  12.9600000   7.8400000
   2.3800000  13.6900000   6.9200000   3.6000000  10.9800000   7.3100000
   3.8300000  11.2500000   6.2800000   3.7300000   9.4600000   7.4900000
   2.8800000   8.9100000   7.0900000   3.8200000   9.2200000   8.5500000
   4.7000000  11.6300000   8.2100000   4.7400000  12.6800000   7.9500000
   5.6600000  11.2100000   7.9200000   4.5400000  11.4300000   9.2700000
   4.9700000   8.9100000   6.7100000   5.0700000   7.8400000   6.8400000
   4.7900000   9.1300000   5.6600000   5.9100000   9.3600000   7.0200000
   1.8400000  13.3800000   9.1000000   1.6700000  12.6400000   9.7700000
   1.6500000  14.8500000   9.5000000   1.8600000  15.4900000   8.6400000
   2.7900000  15.2000000  10.4600000   3.2700000  14.4300000  11.2900000
   0.2800000  15.1300000  10.2200000   0.2400000  16.1500000  10.6100000
   0.2300000  14.4100000  11.0400000  -0.9000000  14.9100000   9.3000000
  -0.7500000  13.9200000   8.8500000  -0.7600000  15.5900000   8.4600000
  -2.2900000  14.9500000   9.8900000  -2.4500000  15.8200000  10.5300000
  -3.0800000  15.1200000   9.1500000  -2.5100000  13.6800000  10.6800000
  -2.5200000  12.8400000   9.9800000  -1.8200000  13.6200000  11.5200000
  -3.9100000  13.6400000  11.2700000  -4.0900000  14.4600000  11.8300000
  -3.9900000  12.8900000  11.9400000  -4.6400000  13.5500000  10.5800000
   3.1400000  16.4700000  10.3800000   2.6300000  17.0500000   9.7400000
   4.1300000  16.9900000  11.3400000   5.0300000  16.3800000  11.3400000
   3.5700000  16.9400000  12.7700000   4.3200000  16.7800000  13.7100000
   4.4900000  18.4800000  11.0000000   3.6100000  19.1000000  10.8200000
   4.8900000  18.8500000  11.9400000   5.4100000  18.7500000   9.7800000
   5.7200000  19.7900000   9.6400000   4.7700000  18.4700000   8.9500000
   6.5700000  17.8000000   9.6900000   7.4700000  17.9300000  10.5400000
   6.7500000  17.0700000   8.6600000   2.2300000  16.9000000  12.9000000
   1.7000000  17.1200000  12.0600000   1.5100000  16.4400000  14.1200000
   0.4600000  16.5400000  13.8700000   1.7500000  17.1200000  14.9300000
   1.5900000  14.9900000  14.6000000   1.3800000  14.7600000  15.8100000
   1.7700000  14.0400000  13.7000000   1.9300000  14.3000000  12.7400000
   1.8900000  12.6600000  14.1500000   1.0500000  12.5500000  14.8400000
   3.2200000  12.3700000  14.9000000   3.3600000  11.2700000  15.4700000
   1.6900000  11.6500000  12.9600000   2.4400000  11.7900000  12.1900000
   1.9000000  10.6500000  13.3400000   0.2800000  11.7300000  12.3400000
  -0.7300000  11.6900000  13.0600000   0.1500000  11.8100000  11.1000000
   4.0600000  13.4200000  15.1200000   3.8100000  14.3300000  14.7600000
   5.3000000  13.3300000  15.8900000   5.4000000  12.2800000  16.1700000
   5.2000000  13.9800000  17.2100000   5.3900000  15.1900000  17.3400000
   6.4500000  14.0300000  15.1600000   6.1200000  15.0300000  14.8700000
   7.3300000  14.2300000  15.7600000   6.9600000  13.2900000  13.9100000
   8.0100000  12.3000000  14.0700000   8.5500000  12.0900000  14.9800000
   6.3900000  13.5000000  12.6300000   5.6100000  14.2300000  12.5300000
   8.4200000  11.5300000  12.9200000   9.2600000  10.8600000  13.0400000
   6.7100000  12.6600000  11.5600000   6.1400000  12.7000000  10.6400000
   7.7900000  11.7300000  11.6600000   7.9900000  11.0700000  10.8200000
   4.8900000  13.2400000  18.1800000   5.1390000  -1.1770000   2.0400000
   4.5220000  -2.4630000   2.1410000   3.4040000  -2.7580000   1.4390000
   2.4740000  -1.7880000   1.0860000   1.3450000  -2.1480000   0.3930000
   1.1160000  -3.4590000   0.0450000  -0.1000000  -3.8990000  -0.6900000
   0.0680000  -4.5110000  -1.7140000  -1.4900000  -3.7030000  -0.2320000
  -1.7210000  -2.9160000   0.8960000  -3.0030000  -2.6890000   1.3440000
  -4.0830000  -3.2400000   0.6850000  -3.8640000  -4.0100000  -0.4400000
  -2.5750000  -4.2260000  -0.8920000   2.0570000  -4.4230000   0.3800000
   1.8330000  -5.7120000   0.0070000   3.1910000  -4.0670000   1.0840000
   5.3288988  -0.7811979   3.0486026   6.0911379  -1.2687717   1.4968505
   4.4716035  -0.4917478   1.4968505   2.6416513  -0.7361133   1.3606405
   0.6127173  -1.3768189   0.1118564  -0.8700747  -2.4719873   1.4333815
  -3.1675529  -2.0637243   2.2339172  -5.1057927  -3.0678999   1.0514377
  -4.7158792  -4.4521717  -0.9773881  -2.4155028  -4.8287324  -1.7982419
   2.4913505  -6.4150672   0.2358473   3.9269012  -4.8360536   1.3614994
