
  648  0.0000000e+00
 -11.3610000   1.5710000 -22.4570000 -11.3050000   0.8020000 -21.8030000
 -12.3100000   1.7840000 -22.7300000 -10.9320000   1.2500000 -23.3130000
 -10.7390000   2.7660000 -21.8310000 -10.6820000   3.5150000 -22.6210000
  -9.3480000   2.4720000 -21.3180000  -9.1590000   1.9750000 -20.2470000
 -11.5890000   3.2820000 -20.6440000 -10.9840000   3.9850000 -20.0710000
 -11.9740000   2.5110000 -19.9760000 -12.7980000   3.9800000 -21.1510000
 -13.5760000   3.4020000 -21.6500000 -12.4840000   4.8380000 -21.7450000
 -13.4510000   4.5180000 -19.8830000 -12.7910000   5.0440000 -19.1930000
 -13.9360000   3.6520000 -19.4330000 -14.5430000   5.4780000 -20.2510000
 -15.4090000   5.0420000 -20.5350000 -14.6110000   6.7510000 -20.1450000
 -13.5560000   7.3800000 -19.6900000 -13.6630000   8.3840000 -19.6870000
 -12.6570000   6.9340000 -19.5730000 -15.6570000   7.4060000 -20.4740000
 -15.7700000   8.3840000 -20.2500000 -16.4440000   6.9480000 -20.9100000
  -8.3580000   2.8930000 -22.1000000  -8.5670000   3.2600000 -23.0170000
  -6.9790000   2.6770000 -21.8530000  -6.4830000   3.1110000 -22.7210000
  -6.7540000   1.6190000 -21.7130000  -6.4960000   3.4170000 -20.6040000
  -5.7350000   2.8020000 -19.8660000  -7.0250000   4.5710000 -20.3060000
  -7.7800000   4.8900000 -20.8960000  -6.8040000   5.2140000 -18.9690000
  -5.7210000   5.3150000 -18.9050000  -7.3240000   4.3560000 -17.7530000
  -6.7470000   4.4340000 -16.7090000  -7.4060000   6.6660000 -18.9890000
  -6.9730000   6.9770000 -18.0380000  -7.1240000   7.3470000 -19.7920000
  -8.8910000   6.7420000 -18.7890000  -9.0370000   7.8210000 -18.8460000
  -9.2150000   6.2440000 -17.8750000  -9.8190000   6.4060000 -19.9840000
  -9.4200000   5.5920000 -20.8500000 -10.9460000   6.8800000 -20.0060000
  -8.3260000   3.4420000 -17.8820000  -8.6640000   3.2790000 -18.8200000
  -8.7530000   2.4300000 -16.8490000  -8.9490000   2.8840000 -15.8780000
  -7.7600000   1.3030000 -16.6370000  -7.5560000   0.9020000 -15.4850000
 -10.1580000   1.8590000 -17.1520000 -10.2250000   1.3940000 -18.1350000
 -10.8650000   2.6850000 -17.0730000 -10.6240000   0.8240000 -16.1180000
 -10.2990000   1.2280000 -15.1590000 -10.1350000  -0.1410000 -16.2510000
 -12.1790000   0.5510000 -16.0840000 -12.7020000   1.4040000 -15.6510000
 -12.4960000   0.4630000 -17.1230000 -12.6430000  -0.5670000 -15.2360000
 -11.9560000  -1.3010000 -15.1410000 -13.8900000  -0.8350000 -14.8640000
 -14.8490000  -0.0230000 -15.0510000 -15.8300000  -0.2580000 -14.9970000
 -14.6400000   0.8640000 -15.4860000 -14.1850000  -2.0040000 -14.4050000
 -13.3910000  -2.6190000 -14.3030000 -15.1330000  -2.3090000 -14.2310000
  -7.0610000   0.9370000 -17.7480000  -7.1490000   1.4380000 -18.6200000
  -5.8280000   0.1400000 -17.5650000  -6.1400000  -0.6510000 -16.8820000
  -4.7800000   0.8500000 -16.8180000  -4.2340000   0.2700000 -15.9260000
  -5.4130000  -0.5150000 -18.8790000  -6.2440000  -1.1020000 -19.2710000
  -5.0800000   0.2570000 -19.5730000  -4.2570000  -1.6370000 -18.7240000
  -3.3010000  -1.2330000 -18.3930000  -4.1000000  -2.0300000 -19.7280000
  -4.6690000  -2.8510000 -17.8760000  -5.5830000  -3.2480000 -18.3160000
  -4.8700000  -2.5400000 -16.8510000  -3.5250000  -3.7870000 -17.8500000
  -2.7100000  -3.2660000 -17.3470000  -3.1840000  -4.0100000 -18.8610000
  -3.8320000  -5.1510000 -17.2570000  -4.0250000  -5.1010000 -16.2670000
  -3.0280000  -5.7470000 -17.3910000  -4.6260000  -5.5990000 -17.6940000
  -4.4560000   2.0520000 -17.1370000  -4.8520000   2.3890000 -18.0030000
  -3.5480000   2.9180000 -16.3550000  -2.5950000   2.3920000 -16.4100000
  -3.9860000   3.0520000 -14.8610000  -3.2170000   2.7430000 -13.9370000
  -3.3600000   4.2780000 -16.9650000  -3.5350000   4.2260000 -18.0390000
  -4.1380000   4.9230000 -16.5570000  -2.0670000   4.9680000 -16.5820000
  -1.9400000   5.9580000 -17.0200000  -1.9860000   5.1280000 -15.5070000
  -0.8000000   4.2320000 -17.0670000  -0.8850000   3.4420000 -18.0150000
   0.3000000   4.5250000 -16.5010000  -5.2870000   3.3520000 -14.6340000
  -5.9000000   3.5330000 -15.4160000  -5.7950000   3.3790000 -13.2340000
  -5.1720000   4.0810000 -12.6790000  -5.6650000   2.0720000 -12.4350000
  -5.3400000   2.1040000 -11.2500000  -7.2470000   3.8780000 -13.2000000
  -7.9330000   3.4890000 -13.9540000  -7.6240000   3.6380000 -12.2060000
  -7.3980000   5.3510000 -13.3770000  -7.2220000   5.6820000 -14.4000000
  -6.7070000   5.9090000 -12.7460000  -8.8160000   5.7770000 -12.9420000
  -9.2120000   5.3140000 -12.0380000  -9.5530000   5.5790000 -13.7200000
  -8.8410000   7.3270000 -12.7170000  -8.0820000   7.7060000 -12.0330000
  -9.8040000   7.5320000 -12.2490000  -8.7820000   8.0620000 -13.9990000
  -8.7930000   9.0660000 -13.8960000  -9.5520000   7.9140000 -14.6360000
  -7.9380000   7.7640000 -14.4660000  -5.7390000   0.9330000 -13.1260000
  -5.9940000   0.9870000 -14.1010000  -5.4160000  -0.3890000 -12.4870000
  -6.0950000  -0.4190000 -11.6350000  -4.0140000  -0.5220000 -11.8870000
  -3.8130000  -1.0720000 -10.8170000  -5.7490000  -1.5010000 -13.4720000
  -5.5850000  -2.4820000 -13.0250000  -5.1550000  -1.3900000 -14.3780000
  -7.1360000  -1.4270000 -13.8460000  -7.1540000  -0.7500000 -14.5270000
  -2.9810000  -0.0440000 -12.6600000  -3.1710000   0.1670000 -13.6290000
  -1.5980000   0.1040000 -12.2490000  -1.1980000  -0.8240000 -11.8420000
  -1.3910000   1.0850000 -11.1290000  -0.4820000   0.7900000 -10.3270000
  -0.7770000   0.5300000 -13.4470000   0.2330000   0.8110000 -13.1500000
  -1.0890000   1.4820000 -13.8760000  -0.7610000  -0.4400000 -14.6610000
  -0.2310000  -1.3520000 -14.3880000  -1.8150000  -0.5830000 -14.9010000
  -0.0850000   0.2080000 -15.8390000  -0.3310000   1.2480000 -16.0540000
   0.9920000   0.1490000 -15.6800000  -0.4290000  -0.5130000 -17.1790000
  -1.3390000  -0.0010000 -17.4920000  -0.7440000  -1.5130000 -16.8780000
   0.6770000  -0.5970000 -18.1820000   1.1400000   0.3000000 -18.2110000
   0.3200000  -0.9070000 -19.0750000   1.3950000  -1.2590000 -17.9250000
  -2.0940000   2.1980000 -11.1490000  -2.6980000   2.3390000 -11.9460000
  -1.8910000   3.3410000 -10.2440000  -0.8440000   3.4890000  -9.9810000
  -2.5630000   3.1120000  -8.9020000  -1.9430000   3.3980000  -7.8570000
  -2.3610000   4.7010000 -10.8850000  -2.1910000   5.4390000 -10.1010000
  -3.3830000   4.4850000 -11.1990000  -1.5000000   5.0990000 -12.0850000
  -1.5880000   4.3470000 -12.8690000  -2.0210000   6.4100000 -12.6330000
  -1.7390000   7.2440000 -11.9910000  -3.0610000   6.3310000 -12.9510000
  -1.4320000   6.4230000 -13.5500000   0.0060000   5.1130000 -11.6760000
   0.5560000   5.4050000 -12.5710000   0.3290000   4.0740000 -11.6160000
   0.2370000   5.6910000 -10.7820000  -3.7970000   2.5740000  -8.8650000
  -4.1970000   2.5090000  -9.7910000  -4.5950000   2.3440000  -7.7010000
  -4.7210000   3.3390000  -7.2760000  -3.8860000   1.3270000  -6.7450000
  -3.7930000   1.5050000  -5.5300000  -5.9760000   1.9090000  -8.0100000
  -5.9440000   1.3010000  -8.9140000  -6.8590000   3.1350000  -8.3620000
  -6.2260000   3.8060000  -8.9430000  -7.0790000   3.7400000  -7.4830000
  -6.6540000   1.0740000  -6.9160000  -6.1120000   0.1360000  -6.8010000
  -6.6530000   1.5690000  -5.9440000  -7.6320000   0.7600000  -7.2810000
  -8.0800000   2.7870000  -9.1510000  -8.8180000   2.3870000  -8.4550000
  -7.9590000   2.1440000 -10.0220000  -8.4000000   3.6920000  -9.6670000
  -3.2910000   0.3700000  -7.3390000  -3.3460000   0.4770000  -8.3420000
  -2.4610000  -0.6420000  -6.6650000  -3.0460000  -1.0800000  -5.8560000
  -1.1560000  -0.0830000  -6.0720000  -0.8340000  -0.4070000  -4.9420000
  -2.1450000  -1.6970000  -7.7610000  -3.0260000  -2.3110000  -7.9450000
  -1.7630000  -1.1980000  -8.6510000  -0.9900000  -2.6350000  -7.3760000
  -1.3400000  -3.9210000  -6.9610000  -2.3850000  -4.1290000  -6.7890000
   0.3810000  -2.2640000  -7.5340000   0.7600000  -1.3580000  -7.9840000
  -0.3540000  -4.9200000  -6.7000000  -0.6200000  -5.8860000  -6.2990000
   1.4030000  -3.2260000  -7.2400000   2.4240000  -2.9070000  -7.3840000
   1.0160000  -4.5450000  -6.8330000   1.8780000  -5.1800000  -6.6890000
  -0.4110000   0.8210000  -6.7320000  -0.6920000   1.1320000  -7.6510000
   0.8590000   1.2620000  -6.1450000   1.4690000   0.4280000  -5.7990000
   0.4950000   2.1750000  -4.9710000   1.3480000   2.2070000  -4.0740000
   1.7020000   2.1150000  -7.1970000   1.1590000   3.0050000  -7.5140000
   2.2100000   1.2990000  -8.4190000   1.3300000   0.8420000  -8.8720000
   2.7860000   0.4580000  -8.0330000   2.9140000   2.8060000  -6.5950000
   3.6400000   3.1920000  -7.3100000   3.3380000   2.0440000  -5.9410000
   2.6300000   3.6510000  -5.9670000   2.9340000   1.7670000  -9.6950000
   2.2330000   2.3670000 -10.2760000   3.8750000   2.2510000  -9.4330000
   3.0670000   0.8520000 -10.2730000  -0.6330000   2.7940000  -4.9310000
  -1.2440000   2.8290000  -5.7350000  -1.1530000   3.6300000  -3.7690000
  -0.3280000   4.1860000  -3.3230000  -1.6530000   2.6600000  -2.6850000
  -1.2150000   2.7900000  -1.5670000  -2.2150000   4.7370000  -4.1780000
  -3.0210000   4.2300000  -4.7090000  -1.4710000   5.7070000  -5.2190000
  -2.0800000   6.6020000  -5.3440000  -1.4860000   5.2170000  -6.1930000
  -2.5440000   5.4620000  -2.8570000  -1.6640000   5.5570000  -2.2210000
  -3.2080000   4.7510000  -2.3640000  -3.0400000   6.4210000  -3.0080000
  -0.1640000   6.2480000  -4.8000000   0.0690000   7.0460000  -5.5040000
   0.5370000   5.4170000  -4.7210000  -0.3420000   6.7680000  -3.8590000
  -2.5780000   1.6950000  -2.9250000  -2.8730000   1.4910000  -3.8690000
  -3.0500000   0.7930000  -1.8570000  -3.5160000   1.3200000  -1.0250000
  -1.9040000  -0.1180000  -1.2690000  -1.8270000  -0.2440000  -0.0460000
  -4.2180000  -0.0960000  -2.4330000  -4.5000000  -0.8420000  -1.6900000
  -3.8450000  -0.7120000  -3.2520000  -5.4180000   0.7760000  -2.8420000
  -5.6440000   1.8230000  -2.1370000  -6.1810000   0.3750000  -3.7290000
  -0.9550000  -0.5630000  -2.0790000  -1.1140000  -0.3160000  -3.0450000
   0.3170000  -1.2110000  -1.6240000   0.0620000  -2.0440000  -0.9690000
   1.1900000  -0.3850000  -0.6830000   1.5200000  -0.7870000   0.4010000
   1.2310000  -1.7280000  -2.7930000   1.5720000  -0.8810000  -3.3880000
   2.1600000  -2.1660000  -2.4310000   0.4970000  -2.6180000  -3.6130000
   0.0110000  -2.0530000  -4.2180000   1.4350000   0.9230000  -0.9360000
   1.0180000   1.2310000  -1.8030000   2.2510000   1.8260000  -0.0680000
   3.2080000   1.3480000   0.1390000   1.5590000   2.0700000   1.2510000
   2.2200000   2.0280000   2.3150000   2.6280000   3.1750000  -0.7860000
   1.8110000   3.7290000  -1.2490000   3.0710000   3.7260000   0.0430000
   3.6710000   2.9310000  -1.9080000   4.4480000   2.3020000  -1.4720000
   3.3210000   2.2700000  -2.7010000   4.1590000   4.3090000  -2.4690000
   3.2910000   4.8860000  -2.7870000   4.5780000   4.8210000  -1.6030000
   5.1080000   4.0550000  -3.6060000   6.0320000   3.7520000  -3.1140000
   4.5670000   3.3110000  -4.1920000   5.3510000   5.2400000  -4.5130000
   4.4760000   5.7290000  -4.6400000   6.0290000   5.9340000  -4.2310000
   5.6190000   4.8820000  -5.4190000   0.2540000   2.3390000   1.2990000
  -0.1880000   2.4900000   0.4030000  -0.5690000   2.3640000   2.5150000
  -0.2850000   3.1080000   3.2590000  -0.3740000   1.0460000   3.3380000
  -0.2370000   1.1620000   4.5490000  -2.0340000   2.7320000   2.1240000
  -2.3820000   1.9510000   1.4480000  -2.0670000   4.1420000   1.4140000
  -1.7900000   4.9240000   2.1210000  -1.3080000   4.2400000   0.6380000
  -2.9320000   2.6540000   3.3930000  -4.0020000   2.6630000   3.1890000
  -2.7480000   3.5010000   4.0530000  -2.6260000   1.8130000   4.0160000
  -3.4060000   4.4060000   0.6660000  -3.3280000   5.3730000   0.1700000
  -4.2520000   4.5140000   1.3460000  -3.5220000   3.6190000  -0.0790000
  -0.4970000  -0.1460000   2.7500000  -0.6820000  -0.2010000   1.7580000
  -0.2560000  -1.4210000   3.4470000  -0.8480000  -1.2510000   4.3470000
   1.1760000  -1.6370000   3.9400000   1.4250000  -2.2350000   5.0050000
  -0.8900000  -2.6510000   2.7430000  -1.8810000  -2.3530000   2.3990000
  -0.3200000  -2.8120000   1.8280000  -1.0760000  -3.8870000   3.5950000
  -1.2630000  -3.8580000   5.0190000  -1.2390000  -2.9550000   5.6110000
  -1.0740000  -5.0720000   2.9960000  -0.8790000  -5.0950000   1.9340000
  -1.3970000  -4.9870000   5.7600000  -1.4610000  -4.9030000   6.8350000
  -1.2010000  -6.2450000   3.7090000  -1.1110000  -7.2110000   3.2340000
  -1.3030000  -6.2330000   5.0990000  -1.3060000  -7.1880000   5.6030000
   2.1720000  -1.1280000   3.2330000   1.9120000  -0.7670000   2.3250000
   3.6070000  -1.1210000   3.5440000   3.8610000  -2.0830000   3.9890000
   4.0080000  -0.1360000   4.7100000   4.7250000  -0.5180000   5.6810000
   4.4660000  -0.8820000   2.2800000   3.9900000  -0.0450000   1.7690000
   5.4660000  -0.5810000   2.5910000   4.6150000  -2.1510000   1.3680000
   3.7160000  -2.7480000   1.5200000   4.7470000  -1.6840000  -0.1230000
   5.6430000  -1.0920000  -0.3070000   4.8210000  -2.5790000  -0.7420000
   3.8750000  -1.0680000  -0.3430000   5.8670000  -2.9740000   1.6930000
   5.8040000  -3.8760000   1.0860000   6.7900000  -2.4640000   1.4180000
   5.9540000  -3.3630000   2.7080000   3.4940000   1.0530000   4.7330000
   2.8690000   1.2950000   3.9780000   3.6160000   1.9520000   5.9200000
   4.6890000   1.8830000   6.0990000   2.9300000   1.3810000   7.2020000
   3.5850000   1.5120000   8.2840000   3.1280000   3.3630000   5.5850000
   3.3370000   3.7470000   4.5860000   2.0540000   3.4850000   5.7240000
   3.9760000   4.2470000   6.2780000   3.7690000   4.1820000   7.2140000
   1.7290000   0.7760000   7.1670000   1.2520000   0.8780000   6.2820000
   1.1930000   0.0320000   8.2790000   0.8440000   0.7250000   9.0440000
   2.0500000  -1.1140000   8.8130000   2.2890000  -1.1550000  10.0140000
  -0.1390000  -0.4600000   7.8810000  -0.6820000   0.4610000   7.6700000
   0.0150000  -0.9980000   6.9460000  -0.9780000  -1.2710000   8.8780000
  -2.1540000  -0.6430000   9.4000000  -2.4450000   0.3720000   9.1720000
  -0.7280000  -2.6360000   9.2500000   0.1510000  -3.1140000   8.8440000
  -3.0370000  -1.3370000  10.1870000  -3.9130000  -0.8450000  10.5830000
  -1.6510000  -3.3490000  10.0670000  -1.4420000  -4.3790000  10.3140000
  -2.7850000  -2.6610000  10.5800000  -3.4360000  -3.2590000  11.2000000
   2.5420000  -1.9890000   7.9620000   2.1920000  -2.0190000   7.0150000
   3.3070000  -3.1310000   8.2030000   2.8250000  -3.8380000   8.8780000
   4.5460000  -2.6680000   8.9630000   4.8310000  -3.2870000   9.9660000
   3.6030000  -3.9270000   6.9310000   4.1370000  -3.3550000   6.1730000
   4.1760000  -4.8060000   7.2290000   2.4090000  -4.4030000   6.3930000
   1.9630000  -3.6920000   5.9280000   5.2740000  -1.6920000   8.4180000
   5.1770000  -1.4350000   7.4460000   6.5560000  -1.2050000   8.9920000
   7.1350000  -2.1100000   9.1770000   6.3440000  -0.4980000  10.3650000
   7.2570000  -0.6450000  11.1750000   7.2800000  -0.2350000   7.9760000
   6.5000000   0.3940000   7.5460000   7.9290000  -1.1230000   6.9300000
   7.2100000  -1.8220000   6.5040000   8.6660000  -1.6990000   7.4900000
   8.3910000   0.6620000   8.6660000   9.1840000  -0.0060000   9.0010000
   8.6270000   1.4470000   7.9480000   8.0310000   1.2130000   9.5350000
   8.6830000  -0.4690000   5.7670000   7.9470000   0.0340000   5.1400000
   9.2050000  -1.2650000   5.2360000   9.4780000   0.1750000   6.1420000
   5.2430000   0.2210000  10.5910000   4.6190000   0.3620000   9.8090000
   4.9800000   0.8350000  11.9370000   5.9500000   1.2740000  12.1690000
   4.5150000  -0.2540000  12.9420000   5.1120000  -0.3590000  14.0160000
   3.8930000   1.9250000  11.7430000   3.2570000   1.8020000  10.8660000
   4.4260000   2.8320000  11.4570000   3.0390000   2.2130000  12.8710000
   3.3130000   3.0830000  13.8840000   4.1710000   3.7290000  13.9970000
   1.7020000   1.6600000  13.1460000   2.3080000   2.9390000  14.8510000
   2.2450000   3.5150000  15.6780000   1.2180000   2.1510000  14.3820000
   0.8220000   0.8350000  12.4620000   1.0430000   0.3910000  11.5020000
  -0.0730000   1.9550000  14.8760000  -0.4120000   2.4200000  15.7900000
  -0.4870000   0.6190000  12.9460000  -1.1460000  -0.0110000  12.3670000
  -0.9500000   1.1580000  14.1200000  -1.9850000   0.9530000  14.3500000
   3.6320000  -1.1540000  12.5890000   3.3940000  -1.0290000  11.6160000
   3.3070000  -2.3760000  13.3580000   2.8090000  -2.1350000  14.2970000
   4.5350000  -3.1980000  13.6900000   4.8440000  -3.5170000  14.8420000
   2.3490000  -3.2360000  12.4970000   2.6910000  -3.3280000  11.4660000
   2.4860000  -4.1990000  12.9890000   0.8810000  -2.8580000  12.5560000
   0.6080000  -1.9740000  11.9810000   0.3610000  -3.6920000  12.0850000
   0.3550000  -2.6820000  14.0160000   0.8820000  -1.8080000  14.3990000
  -0.6320000  -2.2750000  13.7910000   0.4430000  -3.9540000  14.7370000
   0.4790000  -4.8250000  14.2270000   0.5720000  -4.1800000  16.0490000
   0.6430000  -3.2320000  16.9820000   0.3300000  -2.3190000  16.6860000
   0.6580000  -3.4770000  17.9610000   0.5830000  -5.3890000  16.4880000
   0.5920000  -6.1370000  15.8100000   0.6020000  -5.6130000  17.4730000
   5.4780000  -3.3340000  12.7140000   5.3420000  -3.0450000  11.7560000
   6.7240000  -4.0990000  12.9970000   6.5640000  -5.1060000  13.3840000
   7.6790000  -3.5270000  14.0510000   8.2050000  -4.2470000  14.9100000
   7.5470000  -4.1320000  11.6750000   7.5300000  -3.1300000  11.2470000
   6.9760000  -4.8920000  11.1420000   9.0050000  -4.6620000  11.6100000
   9.1990000  -6.0460000  11.4470000   8.4390000  -6.7830000  11.2350000
  10.0670000  -3.7600000  11.5460000   9.7540000  -2.7320000  11.6500000
  10.5030000  -6.5540000  11.5560000  10.6690000  -7.6210000  11.5700000
  11.3340000  -4.2610000  11.5070000  12.1690000  -3.5880000  11.3810000
  11.6010000  -5.6220000  11.5750000  12.5850000  -6.0500000  11.4550000
   8.0170000  -2.2450000  13.9200000   7.5110000  -1.6570000  13.2720000
   8.8860000  -1.5060000  14.8240000   9.8110000  -2.0600000  14.9860000
   8.2850000  -1.4690000  16.2520000   8.9700000  -1.7470000  17.2680000
   9.2450000  -0.0670000  14.4000000   9.8540000   0.3690000  15.1920000
   8.3430000   0.5450000  14.4380000   9.8940000   0.0190000  12.9560000
   9.3620000  -0.6810000  12.3110000   9.9010000   1.4560000  12.5310000
  10.3580000   1.5850000  11.5500000   8.8660000   1.7910000  12.5940000
  10.5440000   2.0460000  13.1840000  11.3260000  -0.5410000  13.0480000
  11.2840000  -1.6160000  13.2250000  11.9730000  -0.3390000  12.1940000
  11.9120000  -0.0890000  13.8480000   6.9940000  -1.3340000  16.3340000
   6.4000000  -1.4490000  15.5250000   6.3000000  -1.4600000  17.6010000
   6.7350000  -0.7530000  18.3080000   6.4510000  -2.8340000  18.2150000
   6.5770000  -3.0230000  19.4460000   4.8470000  -0.9640000  17.4380000
   4.4900000  -1.2990000  16.4640000   4.7100000   0.5650000  17.4660000
   5.1610000   0.9490000  18.3810000   5.3450000   1.0390000  16.7170000
   3.9210000  -1.5810000  18.5150000   2.9380000  -1.1780000  18.2720000
   3.8400000  -2.6590000  18.3740000   4.3170000  -1.2690000  19.4810000
   3.3220000   1.1420000  17.3380000   3.4790000   2.1730000  17.0210000
   2.9610000   1.1910000  18.3650000   2.6670000   0.5930000  16.6610000
   6.3700000  -3.9000000  17.4370000   6.1540000  -3.7880000  16.4570000
   6.7440000  -5.2860000  17.8920000   6.0880000  -5.4490000  18.7480000
   8.1330000  -5.5040000  18.3630000   8.3010000  -6.1260000  19.3610000
   6.3270000  -6.2590000  16.7910000   6.8400000  -6.0860000  15.8450000
   6.8000000  -7.1890000  17.1070000   4.7650000  -6.5340000  16.4620000
   4.4000000  -5.6020000  16.0320000   4.7050000  -7.5420000  15.3290000
   3.6910000  -7.9010000  15.1540000   5.2820000  -8.4320000  15.5820000
   5.1620000  -7.0860000  14.4500000   4.0150000  -7.2310000  17.6420000
   4.4150000  -8.2340000  17.7890000   2.9380000  -7.2920000  17.4820000
   4.2600000  -6.6870000  18.5540000   9.0880000  -4.9410000  17.6400000
   8.8230000  -4.3400000  16.8720000  10.5040000  -5.0270000  18.0730000
  10.7160000  -6.0790000  18.2640000  10.7040000  -4.2200000  19.3380000
  11.5080000  -4.6650000  20.2060000  11.3930000  -4.4980000  16.9340000
  11.0240000  -3.5170000  16.6340000  12.3710000  -4.4240000  17.4100000
  11.6060000  -5.3930000  15.7270000  10.7510000  -5.3920000  15.0510000
  12.8040000  -4.8110000  14.9360000  12.6120000  -3.7760000  14.6540000
  12.9110000  -5.2830000  13.9590000  13.7680000  -4.8980000  15.4370000
  12.0780000  -6.8670000  16.1050000  12.5580000  -7.3040000  15.2290000
  11.2070000  -7.4890000  16.3120000  12.7710000  -6.8720000  16.9460000
   9.9900000  -3.1810000  19.6740000   9.4100000  -2.8020000  18.9380000
  10.0710000  -2.4210000  20.9840000  11.1120000  -2.2900000  21.2800000
   9.4600000  -3.2620000  22.1650000   9.7250000  -2.9010000  23.3150000
   9.4250000  -1.0080000  20.8770000   8.4490000  -1.0510000  20.3950000
   9.3510000  -0.5220000  21.8500000  10.3340000  -0.1280000  20.0450000
  10.6610000  -0.6160000  19.1270000  11.2530000   0.1220000  20.5750000
   9.5330000   1.1280000  19.5750000   8.4620000   0.9700000  19.6970000
   9.6490000   1.3880000  18.5220000   9.8900000   2.2540000  20.5290000
   9.9590000   2.0410000  21.5140000  10.1910000   3.4970000  20.3410000
  10.2050000   4.1560000  19.2150000  10.0970000   3.6920000  18.3250000
  10.1870000   5.1650000  19.2560000  10.5940000   4.2640000  21.3030000
  10.4720000   3.8470000  22.2140000  10.8230000   5.2460000  21.2370000
   8.7130000  -4.2720000  21.8940000   8.6000000  -4.5660000  20.9350000
   7.9770000  -5.0960000  22.9610000   7.8650000  -4.5390000  23.8910000
   8.7200000  -6.3840000  23.4190000   9.7540000  -6.7580000  22.8100000
   6.5940000  -5.4300000  22.3990000   6.0960000  -4.5580000  21.9740000
   5.9600000  -5.9280000  23.1330000   6.6670000  -6.3150000  21.3090000
   7.3540000  -6.1240000  20.6650000   8.1760000  -6.9410000  24.4030000
  -4.3500000  -0.5850000   5.5790000  -3.3390000  -1.1000000   4.5610000
  -3.7220000  -0.6990000   3.1680000  -4.6820000  -1.6660000   2.5470000
  -4.6760000  -1.6540000   1.0380000  -3.9980000  -0.3820000   0.5340000
  -4.9120000   0.5420000  -0.2530000  -6.0080000  -1.6760000   0.5550000
  -6.3650000  -2.5990000  -0.3620000  -7.4910000  -2.6540000  -0.7780000
  -5.2760000  -3.5000000  -0.8190000  -4.9150000  -3.4680000  -2.1330000
  -3.8210000  -4.2820000  -2.6980000  -2.6220000  -3.6550000  -2.9850000
  -1.5570000  -4.3710000  -3.5010000  -1.6730000  -5.7160000  -3.7360000
  -0.5990000  -6.3700000  -4.2380000   0.7080000  -6.0380000  -3.7880000
  -2.8630000  -6.3450000  -3.4490000  -3.9340000  -5.6260000  -2.9330000
  -3.9760453  -0.7754913   6.5957944  -4.4940862   0.4963562   5.4379047
  -5.3094211  -1.1042333   5.4379047  -2.3487647  -0.6823070   4.7954494
  -3.3184067  -2.1984964   4.6146797  -4.1918576   0.2950336   3.2016306
  -2.8083999  -0.6882574   2.5554484  -4.4200006  -2.6791941   2.8858126
  -5.6903021  -1.3607809   2.8634936  -4.1297469  -2.5385074   0.6784806
  -3.6137558   0.1716036   1.4034132  -3.2017792  -0.7003725  -0.1549641
  -5.5103429   1.1468894   0.4442048  -4.3051551   1.2056518  -0.8864868
  -5.5822156  -0.0575878  -0.8864868  -4.7726040  -4.1772924  -0.1134027
  -5.4687618  -2.7995842  -2.8086983  -2.5143178  -2.5758584  -2.8009946
  -0.6103580  -3.8571689  -3.7242635   0.7269236  -6.0331931  -2.6881733
   1.4253191  -6.7824572  -4.1638149   0.9830759  -5.0414578  -4.1638149
  -2.9669448  -7.4250988  -3.6295047  -4.8805095  -6.1408197  -2.7114592
