%VERSION  VERSION_STAMP = V0001.000  DATE = 10/01/26  23:48:07
%FLAG TITLE
%FORMAT(20a4)

%FLAG POINTERS
%FORMAT(10I8)
      44      19      24      20      53      24      79      41       0       0
     223       1      20      24      41      12      21     103       1       0
       0       0       0       0       0       0       0       0      44       0
       0
%FLAG ATOM_NAME
%FORMAT(20a4)
C1x C2x C3x C4x C5x C6x C7x O1x C8x O2x C9x C10xC11xC12xC13xC14xO3x C15xC16xC17x
H1x H2x H3x H4x H5x H6x H7x H8x H9x H10xH11xH12xH13xH14xH15xH16xH17xH18xH19xH20x
H21xH22xH23xH24x
%FLAG CHARGE
%FORMAT(5E16.8)
 -1.69608240E+00 -1.42821459E+00 -1.35532539E+00 -1.86554979E+00  2.77202556E+00
 -1.42821459E+00 -1.65963780E+00 -8.16135444E+00  1.16134855E+01 -9.98540667E+00
 -4.10324823E+00 -2.03676031E-01 -2.21906241E+00 -1.25692497E+00 -3.40715637E+00
  2.60802486E+00 -5.88356694E+00  2.03584464E+00 -3.40715637E+00 -1.25692497E+00
  5.90214913E-01  5.90214913E-01  5.90214913E-01  7.42061339E-01  7.42061339E-01
  7.42061339E-01  7.42061339E-01  1.02450699E+00  1.02450699E+00  1.27050804E+00
  8.96950889E-01  8.96950889E-01  6.63104113E-01  6.63104113E-01  6.63104113E-01
  2.82487023E+00  2.64264723E+00  2.51509113E+00  2.68820298E+00  8.57463165E-01
  8.57463165E-01  8.57463165E-01  2.68820298E+00  2.51509113E+00
%FLAG ATOMIC_NUMBER
%FORMAT(10I8)
       6       6       6       6       6       6       6       8       6       8
       6       6       6       6       6       6       8       6       6       6
       1       1       1       1       1       1       1       1       1       1
       1       1       1       1       1       1       1       1       1       1
       1       1       1       1
%FLAG MASS
%FORMAT(5E16.8)
  1.20107800E+01  1.20107800E+01  1.20107800E+01  1.20107800E+01  1.20107800E+01
  1.20107800E+01  1.20107800E+01  1.59994300E+01  1.20107800E+01  1.59994300E+01
  1.20107800E+01  1.20107800E+01  1.20107800E+01  1.20107800E+01  1.20107800E+01
  1.20107800E+01  1.59994300E+01  1.20107800E+01  1.20107800E+01  1.20107800E+01
  1.00794700E+00  1.00794700E+00  1.00794700E+00  1.00794700E+00  1.00794700E+00
  1.00794700E+00  1.00794700E+00  1.00794700E+00  1.00794700E+00  1.00794700E+00
  1.00794700E+00  1.00794700E+00  1.00794700E+00  1.00794700E+00  1.00794700E+00
  1.00794700E+00  1.00794700E+00  1.00794700E+00  1.00794700E+00  1.00794700E+00
  1.00794700E+00  1.00794700E+00  1.00794700E+00  1.00794700E+00
%FLAG ATOM_TYPE_INDEX
%FORMAT(10I8)
      13      13      13      13      13      13      13      14      15      16
      15      15      15      15      15      15      14      13      15      15
      17      17      17      17      17      17      17      17      17      18
      17      17      17      17      17      19      19      19      19      18
      18      18      19      19
%FLAG NUMBER_EXCLUDED_ATOMS
%FORMAT(10I8)
      10      12      14      14      16      11       7      10       7       3
       6       9      11       9       8      11       8       4       4       4
       4       3       2       3       2       3       2       2       1       2
       4       3       2       1       1       1       1       1       1       2
       1       1       1       1
%FLAG NONBONDED_PARM_INDEX
%FORMAT(10I8)
       1       2       4       7      11      16      22      29      37      46
      56      67      79      92     106     121     137     154     172       2
       3       5       8      12      17      23      30      38      47      57
      68      80      93     107     122     138     155     173       4       5
       6       9      13      18      24      31      39      48      58      69
      81      94     108     123     139     156     174       7       8       9
      10      14      19      25      32      40      49      59      70      82
      95     109     124     140     157     175      11      12      13      14
      15      20      26      33      41      50      60      71      83      96
     110     125     141     158     176      16      17      18      19      20
      21      27      34      42      51      61      72      84      97     111
     126     142     159     177      22      23      24      25      26      27
      28      35      43      52      62      73      85      98     112     127
     143     160     178      29      30      31      32      33      34      35
      36      44      53      63      74      86      99     113     128     144
     161     179      37      38      39      40      41      42      43      44
      45      54      64      75      87     100     114     129     145     162
     180      46      47      48      49      50      51      52      53      54
      55      65      76      88     101     115     130     146     163     181
      56      57      58      59      60      61      62      63      64      65
      66      77      89     102     116     131     147     164     182      67
      68      69      70      71      72      73      74      75      76      77
      78      90     103     117     132     148     165     183      79      80
      81      82      83      84      85      86      87      88      89      90
      91     104     118     133     149     166     184      92      93      94
      95      96      97      98      99     100     101     102     103     104
     105     119     134     150     167     185     106     107     108     109
     110     111     112     113     114     115     116     117     118     119
     120     135     151     168     186     121     122     123     124     125
     126     127     128     129     130     131     132     133     134     135
     136     152     169     187     137     138     139     140     141     142
     143     144     145     146     147     148     149     150     151     152
     153     170     188     154     155     156     157     158     159     160
     161     162     163     164     165     166     167     168     169     170
     171     189     172     173     174     175     176     177     178     179
     180     181     182     183     184     185     186     187     188     189
     190
%FLAG RESIDUE_LABEL
%FORMAT(20a4)
LIG 
%FLAG RESIDUE_POINTER
%FORMAT(10I8)
       1
%FLAG BOND_FORCE_CONSTANT
%FORMAT(5E16.8)
  2.32500000E+02  2.84800000E+02  3.72900000E+02  6.52600000E+02  2.80400000E+02
  4.52200000E+02  2.86500000E+02  3.78600000E+02  3.57500000E+02  3.75900000E+02
  3.91400000E+02  3.95700000E+02
%FLAG BOND_EQUIL_VALUE
%FORMAT(5E16.8)
  1.53800000E+00  1.43200000E+00  1.35800000E+00  1.21800000E+00  1.48200000E+00
  1.35100000E+00  1.47600000E+00  1.39800000E+00  1.37000000E+00  1.09700000E+00
  1.08800000E+00  1.08600000E+00
%FLAG ANGLE_FORCE_CONSTANT
%FORMAT(5E16.8)
  6.49000000E+01  4.68000000E+01  8.53000000E+01  4.69000000E+01  6.69000000E+01
  6.24000000E+01  1.14800000E+02  8.78000000E+01  6.59000000E+01  4.70000000E+01
  8.63000000E+01  6.57000000E+01  5.04000000E+01  6.66000000E+01  4.74000000E+01
  6.88000000E+01  4.87000000E+01  8.73000000E+01  6.61000000E+01  3.90000000E+01
  3.88000000E+01
%FLAG ANGLE_EQUIL_VALUE
%FORMAT(5E16.8)
  1.94621665E+00  1.91637152E+00  1.88443199E+00  1.91218273E+00  2.02423287E+00
  1.91602245E+00  2.15111830E+00  1.93609374E+00  2.20627071E+00  2.03261045E+00
  2.15024564E+00  2.22564386E+00  2.06332824E+00  2.10870680E+00  2.00939757E+00
  2.09474417E+00  2.09230071E+00  2.08043247E+00  2.05879039E+00  1.87762521E+00
  1.89298411E+00
%FLAG DIHEDRAL_FORCE_CONSTANT
%FORMAT(5E16.8)
  2.90000000E-01  3.62500000E+00  1.10000000E-01  8.00000000E-01  1.40000000E+00
  1.10000000E+00  1.30000000E-01  8.00000000E-02  8.00000000E-02  1.30000000E-01
  8.00000000E-02  8.00000000E-02  8.00000000E-02  8.00000000E-02  8.00000000E-02
  1.30000000E-01  1.55555556E-01  1.55555556E-01  8.00000000E-02  8.00000000E-02
  1.30000000E-01  8.00000000E-02  8.00000000E-02  3.83000000E-01  8.00000000E-02
  8.00000000E-02  8.00000000E-02  8.00000000E-02  8.00000000E-02  2.70000000E+00
  2.70000000E+00  8.00000000E-02  8.00000000E-02  3.83000000E-01  1.55555556E-01
  1.55555556E-01  2.50000000E-01  2.50000000E-01  2.50000000E-01  2.50000000E-01
  2.17500000E+00  2.17500000E+00  3.83333333E-01  6.65000000E+00  6.65000000E+00
  2.17500000E+00  2.17500000E+00  5.05000000E-01  5.05000000E-01  3.62500000E+00
  3.62500000E+00  3.62500000E+00  3.62500000E+00  6.65000000E+00  3.62500000E+00
  3.62500000E+00  3.62500000E+00  7.00000000E-01  3.62500000E+00  3.62500000E+00
  3.62500000E+00  3.62500000E+00  1.61000000E+00  3.62500000E+00  3.62500000E+00
  3.83333333E-01  3.83333333E-01  3.83333333E-01  3.62500000E+00  3.62500000E+00
  3.62500000E+00  3.62500000E+00  1.61000000E+00  3.62500000E+00  7.00000000E-01
  3.62500000E+00  1.20000000E-01  1.20000000E-01  1.20000000E-01  1.20000000E-01
  1.20000000E-01  1.20000000E-01  1.20000000E-01  1.20000000E-01  1.20000000E-01
  1.20000000E-01  1.20000000E-01  1.20000000E-01  1.20000000E-01  1.20000000E-01
  1.55555556E-01  1.55555556E-01  1.55555556E-01  1.55555556E-01  1.20000000E-01
  1.20000000E-01  1.20000000E-01  1.20000000E-01  1.20000000E-01  1.20000000E-01
  6.65000000E+00  3.62500000E+00  3.62500000E+00
%FLAG DIHEDRAL_PERIODICITY
%FORMAT(5E16.8)
  2.00000000E+00  2.00000000E+00  1.00000000E+00  1.00000000E+00  1.00000000E+00
  2.00000000E+00  3.00000000E+00  3.00000000E+00  3.00000000E+00  3.00000000E+00
  3.00000000E+00  3.00000000E+00  3.00000000E+00  3.00000000E+00  3.00000000E+00
  3.00000000E+00  3.00000000E+00  3.00000000E+00  3.00000000E+00  3.00000000E+00
  3.00000000E+00  3.00000000E+00  3.00000000E+00  3.00000000E+00  3.00000000E+00
  3.00000000E+00  3.00000000E+00  3.00000000E+00  3.00000000E+00  2.00000000E+00
  2.00000000E+00  3.00000000E+00  3.00000000E+00  3.00000000E+00  3.00000000E+00
  3.00000000E+00  1.00000000E+00  1.00000000E+00  1.00000000E+00  1.00000000E+00
  2.00000000E+00  2.00000000E+00  3.00000000E+00  2.00000000E+00  2.00000000E+00
  2.00000000E+00  2.00000000E+00  2.00000000E+00  2.00000000E+00  2.00000000E+00
  2.00000000E+00  2.00000000E+00  2.00000000E+00  2.00000000E+00  2.00000000E+00
  2.00000000E+00  2.00000000E+00  2.00000000E+00  2.00000000E+00  2.00000000E+00
  2.00000000E+00  2.00000000E+00  2.00000000E+00  2.00000000E+00  2.00000000E+00
  3.00000000E+00  3.00000000E+00  3.00000000E+00  2.00000000E+00  2.00000000E+00
  2.00000000E+00  2.00000000E+00  2.00000000E+00  2.00000000E+00  2.00000000E+00
  2.00000000E+00  3.00000000E+00  3.00000000E+00  3.00000000E+00  3.00000000E+00
  3.00000000E+00  3.00000000E+00  3.00000000E+00  3.00000000E+00  3.00000000E+00
  3.00000000E+00  3.00000000E+00  3.00000000E+00  3.00000000E+00  3.00000000E+00
  3.00000000E+00  3.00000000E+00  3.00000000E+00  3.00000000E+00  3.00000000E+00
  3.00000000E+00  3.00000000E+00  3.00000000E+00  3.00000000E+00  3.00000000E+00
  2.00000000E+00  2.00000000E+00  2.00000000E+00
%FLAG DIHEDRAL_PHASE
%FORMAT(5E16.8)
  3.14159265E+00  3.14159265E+00  0.00000000E+00  3.14159265E+00  3.14159265E+00
  3.14159265E+00  0.00000000E+00  0.00000000E+00  0.00000000E+00  0.00000000E+00
  0.00000000E+00  0.00000000E+00  0.00000000E+00  0.00000000E+00  0.00000000E+00
  0.00000000E+00  0.00000000E+00  0.00000000E+00  0.00000000E+00  0.00000000E+00
  0.00000000E+00  0.00000000E+00  0.00000000E+00  0.00000000E+00  0.00000000E+00
  0.00000000E+00  0.00000000E+00  0.00000000E+00  0.00000000E+00  3.14159265E+00
  3.14159265E+00  0.00000000E+00  0.00000000E+00  0.00000000E+00  0.00000000E+00
  0.00000000E+00  0.00000000E+00  0.00000000E+00  0.00000000E+00  0.00000000E+00
  3.14159265E+00  3.14159265E+00  0.00000000E+00  3.14159265E+00  3.14159265E+00
  3.14159265E+00  3.14159265E+00  3.14159265E+00  3.14159265E+00  3.14159265E+00
  3.14159265E+00  3.14159265E+00  3.14159265E+00  3.14159265E+00  3.14159265E+00
  3.14159265E+00  3.14159265E+00  3.14159265E+00  3.14159265E+00  3.14159265E+00
  3.14159265E+00  3.14159265E+00  3.14159265E+00  3.14159265E+00  3.14159265E+00
  0.00000000E+00  0.00000000E+00  0.00000000E+00  3.14159265E+00  3.14159265E+00
  3.14159265E+00  3.14159265E+00  3.14159265E+00  3.14159265E+00  3.14159265E+00
  3.14159265E+00  0.00000000E+00  0.00000000E+00  0.00000000E+00  0.00000000E+00
  0.00000000E+00  0.00000000E+00  0.00000000E+00  0.00000000E+00  0.00000000E+00
  0.00000000E+00  0.00000000E+00  0.00000000E+00  0.00000000E+00  0.00000000E+00
  0.00000000E+00  0.00000000E+00  0.00000000E+00  0.00000000E+00  0.00000000E+00
  0.00000000E+00  0.00000000E+00  0.00000000E+00  0.00000000E+00  0.00000000E+00
  3.14159265E+00  3.14159265E+00  3.14159265E+00
%FLAG SCEE_SCALE_FACTOR
%FORMAT(5E16.8)
  1.00000000E+00  1.00000000E+00  1.00000000E+00  1.00000000E+00  1.00000000E+00
  1.00000000E+00  1.20000000E+00  1.20000000E+00  1.20000000E+00  1.20000000E+00
  1.20000000E+00  1.20000000E+00  1.20000000E+00  1.20000000E+00  1.20000000E+00
  1.20000000E+00  1.20000000E+00  1.20000000E+00  1.20000000E+00  1.20000000E+00
  1.20000000E+00  1.20000000E+00  1.20000000E+00  1.20000000E+00  1.20000000E+00
  1.20000000E+00  1.20000000E+00  1.20000000E+00  1.20000000E+00  1.20000000E+00
  1.20000000E+00  1.20000000E+00  1.20000000E+00  1.20000000E+00  1.20000000E+00
  1.20000000E+00  1.20000000E+00  1.20000000E+00  1.20000000E+00  1.20000000E+00
  1.20000000E+00  1.20000000E+00  1.20000000E+00  1.20000000E+00  1.20000000E+00
  1.20000000E+00  1.20000000E+00  1.20000000E+00  1.20000000E+00  1.20000000E+00
  1.20000000E+00  1.20000000E+00  1.20000000E+00  1.20000000E+00  1.20000000E+00
  1.20000000E+00  1.20000000E+00  1.20000000E+00  1.20000000E+00  1.20000000E+00
  1.20000000E+00  1.20000000E+00  1.20000000E+00  1.20000000E+00  1.20000000E+00
  1.20000000E+00  1.20000000E+00  1.20000000E+00  1.20000000E+00  1.20000000E+00
  1.20000000E+00  1.20000000E+00  1.20000000E+00  1.20000000E+00  1.20000000E+00
  1.20000000E+00  1.20000000E+00  1.20000000E+00  1.20000000E+00  1.20000000E+00
  1.20000000E+00  1.20000000E+00  1.20000000E+00  1.20000000E+00  1.20000000E+00
  1.20000000E+00  1.20000000E+00  1.20000000E+00  1.20000000E+00  1.20000000E+00
  1.20000000E+00  1.20000000E+00  1.20000000E+00  1.20000000E+00  1.20000000E+00
  1.20000000E+00  1.20000000E+00  1.20000000E+00  1.20000000E+00  1.20000000E+00
  1.20000000E+00  1.20000000E+00  1.20000000E+00
%FLAG SCNB_SCALE_FACTOR
%FORMAT(5E16.8)
  1.00000000E+00  1.00000000E+00  1.00000000E+00  1.00000000E+00  1.00000000E+00
  1.00000000E+00  2.00000000E+00  2.00000000E+00  2.00000000E+00  2.00000000E+00
  2.00000000E+00  2.00000000E+00  2.00000000E+00  2.00000000E+00  2.00000000E+00
  2.00000000E+00  2.00000000E+00  2.00000000E+00  2.00000000E+00  2.00000000E+00
  2.00000000E+00  2.00000000E+00  2.00000000E+00  2.00000000E+00  2.00000000E+00
  2.00000000E+00  2.00000000E+00  2.00000000E+00  2.00000000E+00  2.00000000E+00
  2.00000000E+00  2.00000000E+00  2.00000000E+00  2.00000000E+00  2.00000000E+00
  2.00000000E+00  2.00000000E+00  2.00000000E+00  2.00000000E+00  2.00000000E+00
  2.00000000E+00  2.00000000E+00  2.00000000E+00  2.00000000E+00  2.00000000E+00
  2.00000000E+00  2.00000000E+00  2.00000000E+00  2.00000000E+00  2.00000000E+00
  2.00000000E+00  2.00000000E+00  2.00000000E+00  2.00000000E+00  2.00000000E+00
  2.00000000E+00  2.00000000E+00  2.00000000E+00  2.00000000E+00  2.00000000E+00
  2.00000000E+00  2.00000000E+00  2.00000000E+00  2.00000000E+00  2.00000000E+00
  2.00000000E+00  2.00000000E+00  2.00000000E+00  2.00000000E+00  2.00000000E+00
  2.00000000E+00  2.00000000E+00  2.00000000E+00  2.00000000E+00  2.00000000E+00
  2.00000000E+00  2.00000000E+00  2.00000000E+00  2.00000000E+00  2.00000000E+00
  2.00000000E+00  2.00000000E+00  2.00000000E+00  2.00000000E+00  2.00000000E+00
  2.00000000E+00  2.00000000E+00  2.00000000E+00  2.00000000E+00  2.00000000E+00
  2.00000000E+00  2.00000000E+00  2.00000000E+00  2.00000000E+00  2.00000000E+00
  2.00000000E+00  2.00000000E+00  2.00000000E+00  2.00000000E+00  2.00000000E+00
  2.00000000E+00  2.00000000E+00  2.00000000E+00
%FLAG SOLTY
%FORMAT(5E16.8)
  0.00000000E+00
%FLAG LENNARD_JONES_ACOEF
%FORMAT(5E16.8)
  9.44293233E+05  2.12601181E+03  1.39982777E-01  9.95480466E+05  2.56678134E+03
  1.04308023E+06  2.01791425E+04  9.14716912E+00  2.27401052E+04  2.01823541E+02
  8.82619071E+05  2.27577561E+03  9.24822270E+05  2.01619733E+04  8.19971662E+05
  6.06829342E+05  1.02595236E+03  6.47841731E+05  1.12780457E+04  5.74393458E+05
  3.79876399E+05  8.96776989E+04  1.07193646E+02  9.71708117E+04  1.41077189E+03
  8.61541883E+04  5.44261042E+04  7.51607703E+03  6.20665997E+04  5.94667300E+01
  6.78771368E+04  8.79040886E+02  6.01816484E+04  3.69471530E+04  4.98586848E+03
  3.25969625E+03  7.44975864E+05  1.40467023E+03  7.91544157E+05  1.45985502E+04
  7.01803794E+05  4.71003287E+05  6.82786631E+04  4.66922514E+04  5.81803229E+05
  0.00000000E+00  0.00000000E+00  0.00000000E+00  0.00000000E+00  0.00000000E+00
  0.00000000E+00  0.00000000E+00  0.00000000E+00  0.00000000E+00  0.00000000E+00
  7.91627154E+04  8.90987508E+01  8.59947003E+04  1.21014911E+03  7.62451550E+04
  4.77908183E+04  6.55825601E+03  4.33325458E+03  6.00750218E+04  0.00000000E+00
  5.71629601E+03  6.58473870E+04  6.63368273E+01  7.18621074E+04  9.55000044E+02
  6.37148278E+04  3.93690817E+04  5.34045360E+03  3.50301067E+03  4.96707306E+04
  0.00000000E+00  4.64559155E+03  3.76169105E+03  9.84684600E+05  2.53456440E+03
  1.03184851E+06  2.24743442E+04  9.14863930E+05  6.40712560E+05  9.60832554E+04
  6.71095195E+04  7.82881336E+05  0.00000000E+00  8.50294791E+04  7.10513128E+04
  1.02073671E+06  5.18220260E+05  1.06722540E+03  5.48478208E+05  1.06013455E+04
  4.86295154E+05  3.30296908E+05  4.83404799E+04  3.32551339E+04  4.06752008E+05
  0.00000000E+00  4.26018274E+04  3.53289728E+04  5.42502534E+05  2.83662575E+05
  8.11497350E+05  1.94008400E+03  8.53193737E+05  1.78601506E+04  7.56463928E+05
  5.24402060E+05  7.80065389E+04  5.42099106E+04  6.42430744E+05  0.00000000E+00
  6.89371259E+04  5.74592031E+04  8.43969952E+05  4.46121722E+05  6.96551276E+05
  5.99897901E+05  1.11043914E+03  6.37913494E+05  1.16505362E+04  5.65590822E+05
  3.78641356E+05  5.47803235E+04  3.74148715E+04  4.68011805E+05  0.00000000E+00
  4.81820985E+04  3.98127143E+04  6.30925504E+05  3.27367585E+05  5.17507491E+05
  3.76435470E+05  9.33217616E+04  1.05103439E+02  1.01372942E+05  1.42703904E+03
  8.98799076E+04  5.63419090E+04  7.73223568E+03  5.10916075E+03  7.08225575E+04
  0.00000000E+00  6.73963720E+03  5.47737117E+03  1.00235148E+05  5.02224902E+04
  8.12662403E+04  5.68021765E+04  7.94617769E+03  6.43853349E+04  5.78352684E+01
  7.06006146E+04  8.84544347E+02  6.25963552E+04  3.81142515E+04  5.10916075E+03
  3.32626784E+03  4.82692694E+04  0.00000000E+00  4.43530964E+03  3.57795711E+03
  6.97998263E+04  3.44374471E+04  5.63013422E+04  3.86646725E+04  5.22955465E+03
  3.39005767E+03  8.64679274E+04  1.00417924E+02  9.38067954E+04  1.34169202E+03
  8.31715633E+04  5.23449021E+04  7.20681791E+03  4.77162373E+03  6.57310418E+04
  0.00000000E+00  6.28513799E+03  5.11317150E+03  9.27554496E+04  4.65732396E+04
  7.52549148E+04  5.27277400E+04  7.41026906E+03  4.88692384E+03  6.90855956E+03
%FLAG LENNARD_JONES_BCOEF
%FORMAT(5E16.8)
  8.01323529E+02  2.09604198E+01  9.37598976E-02  7.36907417E+02  2.06278363E+01
  6.75612247E+02  6.45756063E+01  7.57919667E-01  6.13981767E+01  3.56012899E+00
  6.53361429E+02  1.82891803E+01  5.99015525E+02  5.44372326E+01  5.31102864E+02
  6.77220874E+02  1.53505284E+01  6.26720080E+02  5.08951803E+01  5.55666448E+02
  5.64885984E+02  1.36131731E+02  2.59456373E+00  1.26919150E+02  9.41257003E+00
  1.12529845E+02  1.11805549E+02  2.17257828E+01  1.13252061E+02  1.93248820E+00
  1.06076943E+02  7.42992380E+00  9.40505980E+01  9.21192136E+01  1.76949863E+01
  1.43076527E+01  7.50714425E+02  1.79702257E+01  6.93079947E+02  5.79323581E+01
  6.14502845E+02  6.29300710E+02  1.25287818E+02  1.03606917E+02  6.99746810E+02
  0.00000000E+00  0.00000000E+00  0.00000000E+00  0.00000000E+00  0.00000000E+00
  0.00000000E+00  0.00000000E+00  0.00000000E+00  0.00000000E+00  0.00000000E+00
  1.26451907E+02  2.33864085E+00  1.18043746E+02  8.61880722E+00  1.04660679E+02
  1.03580945E+02  2.00642027E+01  1.63092814E+01  1.16187983E+02  0.00000000E+00
  1.85196588E+01  1.15327881E+02  2.01792524E+00  1.07908863E+02  7.65648470E+00
  9.56748258E+01  9.40124296E+01  1.81057616E+01  1.46638650E+01  1.05648788E+02
  0.00000000E+00  1.66953734E+01  1.50233639E+01  7.30206155E+02  2.04226110E+01
  6.69494459E+02  6.08139360E+01  5.93591333E+02  6.20970728E+02  1.25742895E+02
  1.05087646E+02  6.86742760E+02  0.00000000E+00  1.16947855E+02  1.06903901E+02
  6.63431737E+02  4.79881022E+02  1.20051375E+01  4.42179058E+02  3.78372494E+01
  3.92047541E+02  4.03897559E+02  8.07968711E+01  6.70144433E+01  4.48425641E+02
  0.00000000E+00  7.49896074E+01  6.82892701E+01  4.38146883E+02  2.87011518E+02
  6.48597119E+02  1.74825352E+01  5.95658566E+02  5.30440533E+01  5.28126496E+02
  5.49675335E+02  1.10856114E+02  9.24130897E+01  6.08686716E+02  0.00000000E+00
  1.03031170E+02  9.40636541E+01  5.90251928E+02  3.88758656E+02  5.24668528E+02
  6.15165511E+02  1.45902714E+01  5.68167388E+02  4.72594809E+01  5.03752097E+02
  5.15240418E+02  1.02477444E+02  8.46911674E+01  5.73100668E+02  0.00000000E+00
  9.50181887E+01  8.63723599E+01  5.62969425E+02  3.67361018E+02  4.98871431E+02
  4.69350655E+02  1.48987394E+02  2.75631727E+00  1.39078880E+02  1.01563736E+01
  1.23310980E+02  1.22044000E+02  2.36414051E+01  1.92174397E+01  1.36896727E+02
  0.00000000E+00  2.18216157E+01  1.96722815E+01  1.37787728E+02  8.83545880E+01
  1.21392023E+02  1.11953944E+02  2.57122925E+01  1.23751804E+02  2.04464126E+00
  1.16065835E+02  7.99614292E+00  1.02907011E+02  1.00379343E+02  1.92174397E+01
  1.55059847E+01  1.13016701E+02  0.00000000E+00  1.77023375E+01  1.58996004E+01
  1.14981426E+02  7.31636661E+01  1.01040256E+02  9.23664132E+01  2.08590256E+01
  1.67944276E+01  1.34516705E+02  2.52706841E+00  1.25489661E+02  9.23714573E+00
  1.11262422E+02  1.10338858E+02  2.14083478E+01  1.74198525E+01  1.23703833E+02
  0.00000000E+00  1.97659043E+01  1.78280753E+01  1.24325688E+02  7.98066064E+01
  1.09570372E+02  1.01173582E+02  2.32899892E+01  1.89134207E+01  2.10929191E+01
%FLAG BONDS_INC_HYDROGEN
%FORMAT(10I8)
       0      60      10       0      63      10       0      66      10       3
      69      10       3      72      10       6      75      10       6      78
      10       9      81      10       9      84      10      12      87      10
      15      90      10      15      93      10      18      96      10      18
      99      10      18     102      10      30     105      11      33     108
      11      39     111      12      42     114      12      51     117      10
      51     120      10      51     123      10      54     126      12      57
     129      12
%FLAG BONDS_WITHOUT_HYDROGEN
%FORMAT(10I8)
       3       0       1       6       3       1       9       6       1      12
       9       1      15      12       1      18      15       1      21      12
       2      24      21       3      27      24       4      30      24       5
      33      30       6      36      33       7      39      36       8      42
      39       8      45      42       8      48      45       9      51      48
       2      54      45       8      57      54       8      57      36       8
%FLAG ANGLES_INC_HYDROGEN
%FORMAT(10I8)
       0       3      69       2       0       3      72       2       3       0
      60       2       3       0      63       2       3       0      66       2
       3       6      75       2       3       6      78       2       6       3
      69       2       6       3      72       2       6       9      81       2
       6       9      84       2       9       6      75       2       9       6
      78       2       9      12      87       4      12       9      81       2
      12       9      84       2      12      15      90       2      12      15
      93       2      15      12      87       4      15      18      96       2
      15      18      99       2      15      18     102       2      18      15
      90       2      18      15      93       2      21      12      87       6
      24      30     105      10      30      33     108      13      33      30
     105      13      36      33     108      15      36      39     111      17
      36      57     129      17      39      42     114      17      42      39
     111      17      45      42     114      17      45      54     126      17
      48      51     117       6      48      51     120       6      48      51
     123       6      54      57     129      17      57      54     126      17
      60       0      63      20      60       0      66      20      63       0
      66      20      69       3      72      20      75       6      78      20
      81       9      84      20      90      15      93      20      96      18
      99      20      96      18     102      20      99      18     102      20
     117      51     120      21     117      51     123      21     120      51
     123      21
%FLAG ANGLES_WITHOUT_HYDROGEN
%FORMAT(10I8)
       0       3       6       1       3       6       9       1       6       9
      12       1       9      12      15       1       9      12      21       3
      12      15      18       1      12      21      24       5      15      12
      21       3      21      24      27       7      21      24      30       8
      24      30      33       9      27      24      30      11      30      33
      36      12      33      36      39      14      33      36      57      14
      36      39      42      16      36      57      54      16      39      36
      57      16      39      42      45      16      42      45      48      18
      42      45      54      16      45      48      51      19      45      54
      57      16      48      45      54      18
%FLAG DIHEDRALS_INC_HYDROGEN
%FORMAT(10I8)
       0       3       6      75       8       0       3       6      78       9
       3       6       9      81      11       3       6       9      84      12
      60       0       3       6      13      63       0       3       6      14
      66       0       3       6      15       6       9      12      87      18
       9       6       3      69      19       9       6       3      72      20
       9      12      15      90      22       9      12      15      93      23
      12       9       6      75      25      12       9       6      78      26
      12      15      18      96      27      12      15      18      99      28
      12      15      18     102      29      15      12       9      81      32
      15      12       9      84      33      18      15      12      87      36
      21      12       9      81      37      21      12       9      84      38
      21      12      15      90      39      21      12      15      93      40
      21      24      30     105      42      24      21      12      87      43
      24      30      33     108      45      27      24      30     105      47
      33      36      39     111      51      33      36      57     129      53
      36      33      30     105      54      36      39      42     114      56
      36      57      54     126      57      39      36      33     108      58
      39      36      57     129      60      42      45      54     126      64
      45      42      39     111      65      45      48      51     117      66
      45      48      51     120      67      45      48      51     123      68
      45      54      57     129      69      48      45      42     114      70
      48      45      54     126      72      54      45      42     114      74
      57      36      33     108      75      57      36      39     111      76
      60       0       3      69      77      60       0       3      72      78
      63       0       3      69      79      63       0       3      72      80
      66       0       3      69      81      66       0       3      72      82
      69       3       6      75      83      69       3       6      78      84
      72       3       6      75      85      72       3       6      78      86
      75       6       9      81      87      75       6       9      84      88
      78       6       9      81      89      78       6       9      84      90
      81       9      12      87      91      84       9      12      87      92
      87      12      15      90      93      87      12      15      93      94
      90      15      18      96      95      90      15      18      99      96
      90      15      18     102      97      93      15      18      96      98
      93      15      18      99      99      93      15      18     102     100
     105      30      33     108     101     111      39      42     114     102
     126      54      57     129     103      24      33     -30    -105       6
      30      36     -33    -108       6      36      42     -39    -111       6
      39      45     -42    -114       6      45      57     -54    -126       6
      36      54     -57    -129       6
%FLAG DIHEDRALS_WITHOUT_HYDROGEN
%FORMAT(10I8)
       0       3       6       9       7       0       3      -6       9       1
       0       3      -6       9       3       3       6       9      12      10
       3       6      -9      12       1       3       6      -9      12       3
       6       9      12      15      16       6       9     -12      15       1
       6       9     -12      15       3       6       9      12      21      17
       9      12      15      18      21       9      12     -15      18       1
       9      12     -15      18       3       9      12      21      24      24
       9      12     -21      24       4      12      21      24      27      30
      12      21     -24      27       5      12      21      24      30      31
      15      12      21      24      34      15      12     -21      24       4
      18      15      12      21      35      21      24      30      33      41
      24      30      33      36      44      27      24      30      33      46
      30      33      36      39      48      30      33      36      57      49
      33      36      39      42      50      33      36      57      54      52
      36      39      42      45      55      36      57     -54      45       2
      39      36      57      54      59      39      42      45      48      61
      39      42     -45      54       2      42      39      36      57      62
      42      45      48      51      63      42      45     -54      57       2
      48      45      54      57      71      51      48      45      54      73
      30      27     -24     -21       6      39      57     -36     -33       6
      42      54     -45     -48       6
%FLAG EXCLUDED_ATOMS_LIST
%FORMAT(10I8)
       2       3       4      21      22      23      24      25      26      27
       3       4       5      21      22      23      24      25      26      27
      28      29       4       5       6       8      21      22      23      24
      25      26      27      28      29      30       5       6       7       8
       9      24      25      26      27      28      29      30      31      32
       6       7       8       9      10      11      26      27      28      29
      30      31      32      33      34      35       7       8       9      28
      29      30      31      32      33      34      35       8      30      31
      32      33      34      35       9      10      11      12      28      29
      30      31      32      36      10      11      12      13      30      36
      37      11      12      36      12      13      14      20      36      37
      13      14      15      19      20      36      37      38      44      14
      15      16      19      20      36      37      38      39      43      44
      15      16      17      19      20      37      38      39      44      16
      17      18      19      20      38      39      43      17      18      19
      20      38      39      40      41      42      43      44      18      19
      20      39      40      41      42      43      19      40      41      42
      20      39      43      44      37      38      43      44      22      23
      24      25      23      24      25      24      25      25      26      27
      26      27      27      28      29      28      29      29      30      30
      31      32      32      33      34      35      33      34      35      34
      35      35       0      37       0      39       0      41      42      42
       0      44       0
%FLAG HBOND_ACOEF
%FORMAT(5E16.8)

%FLAG HBOND_BCOEF
%FORMAT(5E16.8)

%FLAG HBCUT
%FORMAT(5E16.8)

%FLAG AMBER_ATOM_TYPE
%FORMAT(20a4)
C3  C3  C3  C3  C3  C3  C3  O3  C4  O4  C4  C4  C4  C4  C4  C4  O3  C3  C4  C4  
H8  H8  H8  H8  H8  H8  H8  H8  H8  H9  H8  H8  H8  H8  H8  H10 H10 H10 H10 H9  
H9  H9  H10 H10 
%FLAG TREE_CHAIN_CLASSIFICATION
%FORMAT(20a4)
BLA BLA BLA BLA BLA BLA BLA BLA BLA BLA BLA BLA BLA BLA BLA BLA BLA BLA BLA BLA 
BLA BLA BLA BLA BLA BLA BLA BLA BLA BLA BLA BLA BLA BLA BLA BLA BLA BLA BLA BLA 
BLA BLA BLA BLA 
%FLAG JOIN_ARRAY
%FORMAT(10I8)
       0       0       0       0       0       0       0       0       0       0
       0       0       0       0       0       0       0       0       0       0
       0       0       0       0       0       0       0       0       0       0
       0       0       0       0       0       0       0       0       0       0
       0       0       0       0
%FLAG IROTAT
%FORMAT(10I8)
       0       0       0       0       0       0       0       0       0       0
       0       0       0       0       0       0       0       0       0       0
       0       0       0       0       0       0       0       0       0       0
       0       0       0       0       0       0       0       0       0       0
       0       0       0       0
%FLAG RADIUS_SET
%FORMAT(1a80)
H(N)-modified Bondi radii (mbondi2)                                             
%FLAG RADII
%FORMAT(5E16.8)
  1.70000000E+00  1.70000000E+00  1.70000000E+00  1.70000000E+00  1.70000000E+00
  1.70000000E+00  1.70000000E+00  1.50000000E+00  1.70000000E+00  1.50000000E+00
  1.70000000E+00  1.70000000E+00  1.70000000E+00  1.70000000E+00  1.70000000E+00
  1.70000000E+00  1.50000000E+00  1.70000000E+00  1.70000000E+00  1.70000000E+00
  1.20000000E+00  1.20000000E+00  1.20000000E+00  1.20000000E+00  1.20000000E+00
  1.20000000E+00  1.20000000E+00  1.20000000E+00  1.20000000E+00  1.20000000E+00
  1.20000000E+00  1.20000000E+00  1.20000000E+00  1.20000000E+00  1.20000000E+00
  1.20000000E+00  1.20000000E+00  1.20000000E+00  1.20000000E+00  1.20000000E+00
  1.20000000E+00  1.20000000E+00  1.20000000E+00  1.20000000E+00
%FLAG SCREEN
%FORMAT(5E16.8)
  7.20000000E-01  7.20000000E-01  7.20000000E-01  7.20000000E-01  7.20000000E-01
  7.20000000E-01  7.20000000E-01  8.50000000E-01  7.20000000E-01  8.50000000E-01
  7.20000000E-01  7.20000000E-01  7.20000000E-01  7.20000000E-01  7.20000000E-01
  7.20000000E-01  8.50000000E-01  7.20000000E-01  7.20000000E-01  7.20000000E-01
  8.50000000E-01  8.50000000E-01  8.50000000E-01  8.50000000E-01  8.50000000E-01
  8.50000000E-01  8.50000000E-01  8.50000000E-01  8.50000000E-01  8.50000000E-01
  8.50000000E-01  8.50000000E-01  8.50000000E-01  8.50000000E-01  8.50000000E-01
  8.50000000E-01  8.50000000E-01  8.50000000E-01  8.50000000E-01  8.50000000E-01
  8.50000000E-01  8.50000000E-01  8.50000000E-01  8.50000000E-01
%FLAG IPOL
%FORMAT(1I8)
       0
