
  417  0.0000000e+00
   9.5070000  -5.3360000  -0.0100000  10.4850000  -5.3740000   0.2410000
   9.1050000  -6.2060000   0.3080000   9.4690000  -5.3000000  -1.0180000
   8.7960000  -4.2170000   0.5960000   9.0690000  -3.2500000   0.1720000
   9.1760000  -4.1050000   2.1030000   9.3480000  -5.1660000   2.7240000
   7.3120000  -4.4500000   0.4510000   7.0430000  -5.2650000   1.1230000
   6.7460000  -3.6160000   0.8640000   6.8270000  -4.6260000  -1.0010000
   7.3990000  -3.9510000  -2.0700000   8.2340000  -3.2870000  -1.9000000
   5.6640000  -5.3740000  -1.2120000   5.1850000  -5.8240000  -0.3550000
   6.8830000  -4.0420000  -3.3430000   7.3250000  -3.5160000  -4.1760000
   5.0850000  -5.4680000  -2.4860000   4.2410000  -6.1320000  -2.6030000
   5.6740000  -4.7150000  -3.4960000   5.1490000  -4.7180000  -4.4400000
   9.0820000  -2.9220000   2.7160000   9.0380000  -2.7530000   4.1680000
   9.9320000  -3.1600000   4.6410000   7.7940000  -3.5300000   4.7760000
   7.0650000  -4.1010000   4.0010000   8.9530000  -1.1700000   4.3140000
   9.9270000  -0.7080000   4.4740000   8.2550000  -0.9300000   5.1160000
   8.4100000  -0.6690000   3.0250000   7.3250000  -0.5730000   3.0590000
   8.9500000   0.2450000   2.7810000   8.7560000  -1.7020000   1.9990000
   7.9580000  -1.8120000   1.2650000   9.6580000  -1.2590000   1.5780000
   7.5840000  -3.4980000   6.0550000   8.1920000  -2.8540000   6.5390000
   6.3810000  -4.0200000   6.6690000   6.1440000  -5.0390000   6.3630000
   5.2720000  -2.9680000   6.3280000   5.6060000  -1.7930000   6.0560000
   6.6370000  -3.9330000   8.1900000   7.6270000  -4.3530000   8.3690000
   6.6800000  -2.9070000   8.5560000   5.6310000  -4.6700000   8.9530000
   5.4840000  -5.6600000   8.5220000   4.6650000  -4.1660000   8.9240000
   6.1080000  -4.7690000  10.4450000   7.0410000  -5.3310000  10.4130000
   6.3480000  -3.8110000  10.9080000   5.2100000  -5.6010000  11.1890000
   4.2370000  -5.5370000  10.9250000   5.4560000  -6.2070000  12.3010000
   6.6460000  -6.1010000  12.8550000   7.3970000  -5.4690000  12.6140000
   6.7680000  -6.5330000  13.7590000   4.4830000  -6.8830000  12.8240000
   3.6020000  -6.9900000  12.3410000   4.7360000  -7.5610000  13.5280000
   3.9920000  -3.3300000   6.5150000   3.8290000  -4.3010000   6.7390000
   2.8800000  -2.3800000   6.6170000   2.9380000  -1.6960000   5.7700000
   3.0200000  -1.5370000   7.9020000   2.9770000  -2.0970000   8.9990000
   1.6130000  -3.1890000   6.6330000   1.5760000  -3.8000000   7.5350000
   1.7070000  -3.8900000   5.8030000   0.3460000  -2.3850000   6.6560000
   0.3980000  -1.5640000   7.3700000   0.1610000  -1.7580000   5.3550000
   0.2240000  -2.4370000   4.5050000   0.9600000  -1.0220000   5.2650000
  -0.7320000  -1.1340000   5.3020000  -0.8720000  -3.2120000   6.8500000
  -0.9390000  -3.9210000   6.0250000  -0.8210000  -3.6380000   7.8520000
  -1.7500000  -2.5650000   6.8540000   3.0780000  -0.1910000   7.8840000
   2.9750000   0.1780000   6.9500000   3.1480000   0.6960000   9.0460000
   2.7640000   0.2580000   9.9670000   2.2850000   1.9260000   8.8720000
   1.7260000   2.3720000   9.8750000   4.6540000   1.0820000   9.3580000
   5.1040000   1.7250000   8.6010000   4.7100000   1.6330000  10.2970000
   5.5650000  -0.1640000   9.4740000   5.5910000  -0.7010000   8.5260000
   5.1160000  -0.8730000  10.1690000   7.1090000   0.0240000   9.7140000
   7.4880000   0.5430000   8.8340000   7.5540000  -0.9700000   9.7480000
   7.4530000   0.8590000  10.9600000   7.0770000   0.3090000  11.8220000
   6.9720000   1.8370000  10.9700000   8.9140000   1.0310000  11.1040000
   9.1370000   1.5870000  11.9170000   9.4320000   1.4570000  10.3490000
   9.3740000   0.1930000  11.4310000   2.3460000   2.6150000   7.7330000
   3.0040000   2.3340000   7.0200000   1.7410000   3.9030000   7.5170000
   1.8460000   4.4130000   8.4750000   0.2810000   3.8810000   7.0500000
  -0.1670000   2.9850000   6.3910000   2.4900000   4.7650000   6.5000000
   2.1290000   5.7930000   6.4640000   2.2840000   4.3530000   5.5120000
   4.0360000   4.8360000   6.7070000   4.4270000   3.8670000   7.0170000
   4.6920000   5.0050000   5.2930000   5.7630000   5.2100000   5.3130000
   4.5360000   4.2580000   4.5160000   4.1900000   5.8940000   4.9120000
   4.3350000   5.9620000   7.7510000   5.4220000   6.0150000   7.8070000
   3.9660000   5.6500000   8.7290000   3.9150000   6.9600000   7.6280000
  -0.4780000   4.9310000   7.3420000  -0.1420000   5.6070000   8.0130000
  -1.7460000   5.2840000   6.7430000  -2.4500000   4.5200000   7.0730000
  -1.6900000   5.3280000   5.2100000  -2.4120000   4.6640000   4.5050000
  -2.2730000   6.6340000   7.2880000  -1.6910000   7.5310000   7.0790000
  -2.2720000   6.5820000   8.3770000  -3.7530000   6.8950000   6.9030000
  -4.4560000   6.0820000   7.0860000  -3.7840000   7.0060000   5.8190000
  -4.3580000   8.1600000   7.6280000  -3.6630000   8.9990000   7.5940000
  -4.5360000   8.0000000   8.6910000  -5.7530000   8.4930000   7.0510000
  -6.4360000   7.6550000   7.1940000  -5.7780000   8.5410000   5.9620000
  -6.3970000   9.6560000   7.6790000  -7.4010000   9.6800000   7.5720000
  -6.2300000   9.6780000   8.6750000  -6.0060000  10.4670000   7.2210000
  -0.7200000   6.0120000   4.7010000  -0.1790000   6.6730000   5.2400000
  -0.3830000   6.0180000   3.2660000  -1.2140000   6.4650000   2.7210000
  -0.1420000   4.6490000   2.6420000  -0.4470000   4.5100000   1.4400000
   0.8290000   6.8900000   2.9260000   0.9790000   6.9750000   1.8500000
   0.6380000   7.8670000   3.3720000   2.0480000   6.3520000   3.4550000
   2.2960000   5.6550000   2.8420000   0.4080000   3.6640000   3.4080000
   0.6640000   3.8240000   4.3720000   0.4550000   2.3000000   2.8330000
   1.1520000   2.3220000   1.9950000  -0.9290000   1.7410000   2.6800000
  -1.2960000   1.1870000   1.6570000   1.1980000   1.3120000   3.7880000
   1.4220000   0.4480000   3.1620000   0.5310000   1.0680000   4.6140000
   2.5690000   1.6600000   4.3080000   3.3850000   2.3220000   3.5570000
   2.9120000   1.1420000   5.4280000  -1.7320000   1.8040000   3.7740000
  -1.3050000   2.1940000   4.6020000  -3.0380000   1.1820000   3.8660000
  -2.8840000   0.1360000   3.6000000  -3.9900000   1.7300000   2.8280000
  -4.7190000   0.9990000   2.1670000  -3.6000000   1.3280000   5.2910000
  -4.5360000   0.8000000   5.4730000  -3.6740000   2.3910000   5.5210000
  -2.8400000   0.9260000   5.9610000  -3.9620000   3.0970000   2.6270000
  -3.3830000   3.6150000   3.2730000  -4.6560000   3.7940000   1.5850000
  -5.7250000   3.5900000   1.6330000  -4.2370000   3.4100000   0.1430000
  -5.0530000   3.1340000  -0.7270000  -4.3180000   5.2380000   1.9040000
  -4.6880000   5.7640000   1.0250000  -3.2560000   5.4740000   1.9830000
  -5.0880000   5.7790000   3.0770000  -6.1100000   5.5930000   2.7480000
  -4.9280000   5.2010000   3.9880000  -4.9920000   7.3540000   3.2160000
  -4.1380000   7.8750000   2.4730000  -5.7690000   7.9420000   3.9540000
  -2.9260000   3.3430000  -0.1050000  -2.2600000   3.7800000   0.5150000
  -2.4190000   2.8270000  -1.3550000  -2.9390000   3.4070000  -2.1180000
  -2.6730000   1.3500000  -1.6880000  -3.0070000   1.1000000  -2.8440000
  -0.9240000   3.0320000  -1.4130000  -0.7970000   4.1040000  -1.2620000
  -0.4010000   2.4760000  -0.6350000  -0.5980000   2.6710000  -2.3890000
  -2.5730000   0.4210000  -0.7170000  -2.2230000   0.7670000   0.1650000
  -2.9350000  -0.9530000  -0.9350000  -2.3700000  -1.3600000  -1.7730000
  -4.4820000  -1.0340000  -1.2810000  -4.8190000  -1.7250000  -2.2420000
  -2.7530000  -1.7500000   0.3500000  -3.1260000  -1.1140000   1.1540000
  -1.1960000  -1.9770000   0.4470000  -0.7280000  -1.2180000  -0.1800000
  -0.8380000  -2.8680000  -0.0700000  -3.3560000  -3.2080000   0.2820000
  -2.9990000  -3.8580000   1.0810000  -4.4230000  -3.1030000   0.4820000
  -3.1030000  -3.6660000  -0.6740000  -0.6390000  -2.0020000   1.8400000
  -1.2090000  -1.2810000   2.4250000   0.4160000  -1.7510000   1.7290000
  -0.9100000  -2.9220000   2.3580000  -5.3640000  -0.2070000  -0.6700000
  -5.0640000   0.2830000   0.1600000  -6.7330000  -0.3230000  -0.9770000
  -7.1460000  -1.3230000  -0.8500000  -7.1620000   0.1680000  -2.3910000
  -8.0640000  -0.4840000  -2.9460000  -7.4060000   0.4520000   0.0880000
  -8.4760000   0.2480000   0.0920000  -7.0520000   0.1010000   1.0570000
  -7.1830000   1.5110000  -0.0390000  -6.4800000   1.1820000  -2.9760000
  -5.7450000   1.6060000  -2.4280000  -6.6780000   1.7510000  -4.3310000
  -7.6740000   1.9470000  -4.7270000  -6.1050000   0.7240000  -5.3480000
  -6.7720000   0.4560000  -6.3780000  -5.8070000   3.0180000  -4.3710000
  -6.0590000   3.4960000  -5.3180000  -4.7250000   2.8960000  -4.4230000
  -6.0660000   3.8940000  -3.3290000  -5.5580000   3.6240000  -2.5610000
  -5.0070000   0.0190000  -5.0630000  -4.4950000   0.3480000  -4.2570000
  -4.5230000  -1.1300000  -5.8500000  -4.2840000  -0.7990000  -6.8610000
  -5.4810000  -2.3210000  -6.0190000  -5.5920000  -2.9410000  -7.0970000
  -3.1540000  -1.6160000  -5.3440000  -2.4450000  -0.8010000  -5.4900000
  -3.0950000  -1.8090000  -4.2730000  -2.5750000  -2.7800000  -6.1470000
  -3.1410000  -3.6750000  -5.8900000  -1.5530000  -2.8250000  -5.7690000
  -2.4040000  -2.4550000  -7.6660000  -1.7020000  -1.6300000  -7.7900000
  -3.3990000  -2.1220000  -7.9620000  -1.9910000  -3.6760000  -8.4440000
  -1.0900000  -3.6570000  -8.8990000  -2.7850000  -4.7690000  -8.7050000
  -3.8730000  -4.9050000  -8.1140000  -4.3460000  -4.1060000  -7.7170000
  -4.4980000  -5.6900000  -8.2330000  -2.3480000  -5.6810000  -9.4970000
  -2.8170000  -6.5560000  -9.6870000  -1.4220000  -5.5200000  -9.8660000
  -6.1920000  -2.5610000  -4.9220000  -5.9600000  -2.0140000  -4.1050000
  -7.3790000  -3.4660000  -4.8430000  -7.0670000  -4.3750000  -5.3570000
  -8.5560000  -2.9260000  -5.6550000  -9.3290000  -3.7040000  -6.2000000
  -7.6070000  -3.9520000  -3.3720000  -8.0540000  -3.1340000  -2.8070000
  -8.4430000  -4.6420000  -3.4880000  -6.5320000  -4.5730000  -2.4800000
  -5.5880000  -4.0480000  -2.6270000  -7.0300000  -4.6310000  -1.0070000
  -6.8280000  -3.6630000  -0.5470000  -6.5130000  -5.4170000  -0.4570000
  -8.0900000  -4.8680000  -0.9200000  -6.3630000  -5.9930000  -2.9700000
  -5.7170000  -6.5650000  -2.3040000  -5.9690000  -5.9760000  -3.9860000
  -7.2910000  -6.5590000  -2.8830000  -8.7120000  -1.5900000  -5.8860000
  -8.0570000  -0.9740000  -5.4260000  -9.6500000  -0.9650000  -6.8450000
 -10.4790000  -1.6190000  -7.1150000  -9.1080000  -0.6710000  -8.2800000
  -9.8220000  -0.1540000  -9.1320000 -10.2880000   0.3050000  -6.2110000
  -9.4280000   0.9460000  -6.0170000 -10.9880000   0.8210000  -6.8690000
 -10.8880000   0.1030000  -4.8280000 -11.5410000  -0.9030000  -4.6230000
 -10.8560000   1.0360000  -4.0390000  -7.8970000  -1.1260000  -8.5620000
  -7.4670000  -1.5240000  -7.7390000  -7.0760000  -1.0500000  -9.7510000
  -6.2320000  -1.7220000  -9.5940000  -7.6340000  -1.5540000 -10.5400000
  -6.6100000   0.3060000 -10.2590000  -5.9800000   0.3670000 -11.3000000
  -6.9120000   1.4330000  -9.5050000  -7.2890000   1.2150000  -8.5940000
  -6.5970000   2.8940000  -9.8600000  -6.9200000   3.0670000 -10.8860000
  -5.0790000   3.3170000  -9.8580000  -4.7220000   4.4980000 -10.1340000
  -7.4370000   3.8330000  -8.9230000  -8.4920000   3.6500000  -9.1230000
  -7.2710000   4.8440000  -9.2970000  -7.1520000   3.5420000  -7.5790000
  -7.2640000   4.3360000  -7.0510000  -4.2070000   2.3680000  -9.5840000
  -4.5850000   1.4530000  -9.3810000  -2.7920000   2.6150000  -9.3130000
  -2.3770000   3.3100000 -10.0430000  -1.9620000   1.2640000  -9.4420000
  -2.4970000   0.1920000  -9.2720000  -2.5710000   3.1990000  -7.9040000
  -3.2370000   4.0340000  -7.6830000  -1.3030000   3.5970000  -7.6820000
  -0.9920000   4.0510000  -8.4680000  -2.8410000   2.2370000  -6.7980000
  -2.2940000   1.2960000  -6.8440000  -2.5960000   2.6570000  -5.8220000
  -3.9030000   2.0000000  -6.7420000  -0.6680000   1.3400000  -9.6770000
  -0.1710000   2.2140000  -9.5820000   0.2610000   0.1660000  -9.7270000
  -0.3450000  -0.6340000 -10.1520000   0.7710000  -0.3320000  -8.2730000
   0.4070000   0.2630000  -7.3290000   1.4470000   0.5230000 -10.6230000
   1.0870000   0.8670000 -11.5920000   1.9950000   1.3490000 -10.1710000
   2.1230000  -0.3200000 -10.7630000   1.4560000  -1.4510000  -8.2080000
   1.4000000  -2.1290000  -8.9550000   2.0790000  -1.9780000  -6.9530000
   1.4290000  -2.0190000  -6.0790000   3.2050000  -1.1270000  -6.3360000
   4.1160000  -1.6740000  -5.7450000   2.3930000  -3.5010000  -7.1460000
   3.2930000  -3.7650000  -6.5900000   2.7270000  -3.6220000  -8.1770000
   1.3290000  -4.5090000  -6.8400000   1.0330000  -5.5580000  -7.6630000
   1.4820000  -5.8240000  -8.6090000   0.5230000  -4.6420000  -5.6550000
  -0.0020000  -6.2590000  -7.1030000  -0.4150000  -7.0560000  -7.5670000
  -0.3650000  -5.7570000  -5.9150000   0.3460000  -3.9500000  -4.4800000
   1.0640000  -3.2220000  -4.1330000  -1.4760000  -5.9440000  -5.0930000
  -2.1880000  -6.7150000  -5.3470000  -0.7160000  -4.2350000  -3.5440000
  -0.8280000  -3.6550000  -2.6400000  -1.6910000  -5.1970000  -3.9080000
  -2.5900000  -5.4120000  -3.3500000   3.1730000   0.1670000  -6.5080000
   2.4040000   0.5740000  -7.0210000   4.2840000   1.1080000  -6.0090000
   5.0370000   0.5880000  -5.4160000   3.5060000   2.1170000  -5.1690000
   2.2930000   2.3540000  -5.4630000   5.0780000   1.8090000  -7.1990000
   5.6570000   2.6780000  -6.8860000   4.2250000   2.1610000  -8.2530000
   3.4230000   2.5410000  -7.8870000   6.0440000   0.8190000  -7.8150000
   6.4670000   1.1300000  -8.7700000   5.4180000  -0.0380000  -8.0620000
   6.8470000   0.5730000  -7.1200000   4.2310000   2.8220000  -4.2430000
   5.1820000   2.4920000  -4.1560000   3.8240000   4.1210000  -3.6830000
   2.7990000   4.0790000  -3.3140000   3.9200000   5.2100000  -4.7350000
   5.0630000   5.4380000  -5.2570000   4.7470000   4.4230000  -2.4540000
   4.3130000   5.3170000  -2.0060000   5.7000000   4.6400000  -2.9370000
   4.7840000   3.2830000  -1.3030000   5.9240000   2.7820000  -1.0890000
   3.7090000   3.0490000  -0.7110000   2.9470000   5.9320000  -5.0230000
   2.0170000   1.2080000  -4.9840000   2.0620000  -0.0490000  -4.3020000
   2.8390000  -0.2210000  -3.1940000   2.8440000  -1.4760000  -2.5850000
   3.6110000  -1.6980000  -1.4500000   4.3710000  -0.6820000  -0.8970000
   5.1840000  -0.9270000   0.3380000   5.9790000  -0.0700000   0.7150000
   5.0570000  -2.2060000   1.0980000   6.1270000  -2.9980000   1.3070000
   6.0920000  -4.1760000   2.0310000   4.8900000  -4.6000000   2.5440000
   3.7600000  -3.8210000   2.3390000   3.8540000  -2.6330000   1.6140000
   4.3780000   0.5880000  -1.5100000   5.1410000   1.5860000  -0.9770000
   3.6080000   0.7970000  -2.6530000   1.9878000   2.0241000  -4.2471000
   2.9119000   1.3153000  -5.6146000   1.1167000   1.2510000  -5.6146000
   2.2382000  -2.2921000  -3.0057000   3.6150000  -2.6943000  -0.9838000
   7.0896000  -2.6879000   0.8743000   7.0087000  -4.7620000   2.1929000
   4.8244000  -5.5420000   3.1082000   2.7902000  -4.1403000   2.7482000
   2.9508000  -2.0264000   1.4516000   5.1520000   2.4807000  -1.4007000
   3.6108000   1.7865000  -3.1336000
