
  649  0.0000000e+00
 -25.0000000  -2.0500000   3.7300000 -24.4000000  -1.4200000   3.2200000
 -25.0100000  -1.8500000   4.7200000 -25.9000000  -2.0200000   3.2700000
 -24.3400000  -3.3900000   3.5300000 -24.9100000  -4.2300000   3.9300000
 -22.9700000  -3.3800000   4.1600000 -21.9500000  -2.9100000   3.6400000
 -24.2500000  -3.7200000   2.0700000 -23.6900000  -2.9600000   1.5300000
 -25.2400000  -3.6900000   1.6200000 -23.6800000  -5.0400000   1.8700000
 -24.2900000  -5.6100000   1.3900000 -22.9900000  -3.9300000   5.4000000
 -23.8200000  -4.1800000   5.9100000 -21.7000000  -4.1400000   6.1000000
 -21.2800000  -3.1400000   6.0000000 -20.7800000  -5.1100000   5.3600000
 -19.5700000  -4.8500000   5.2300000 -21.9400000  -4.4600000   7.6200000
 -22.7600000  -3.7800000   7.8200000 -20.6500000  -4.0600000   8.3800000
 -20.1400000  -3.1400000   8.0900000 -19.9000000  -4.8500000   8.2800000
 -22.4200000  -5.9200000   7.7700000 -21.6500000  -6.6800000   7.6800000
 -23.3000000  -6.1500000   7.1700000 -22.7600000  -6.0500000   8.8000000
 -21.1000000  -3.9000000   9.8100000 -21.6600000  -4.7300000  10.2300000
 -21.9100000  -3.1900000   9.9400000 -20.3500000  -3.5800000  10.5400000
 -21.2700000  -6.2000000   4.6800000 -22.2600000  -6.4300000   4.7100000
 -20.3800000  -6.9800000   3.8400000 -19.4800000  -7.2400000   4.4100000
 -19.9100000  -6.2600000   2.5500000 -18.8400000  -6.6500000   2.0200000
 -21.0000000  -8.4100000   3.5400000 -20.1200000  -8.8500000   3.0600000
 -21.7400000  -8.3000000   2.7500000 -21.6800000  -9.3500000   4.5500000
 -22.6900000  -8.9500000   4.6800000 -21.2300000  -9.2300000   5.5400000
 -21.8300000 -10.8000000   4.0500000 -22.3400000 -10.7900000   3.0800000
 -22.5100000 -11.3200000   4.7300000 -20.3600000 -11.3800000   3.9100000
 -19.9800000 -11.4000000   4.9300000 -19.7200000 -10.7000000   3.3500000
 -20.3400000 -12.7100000   3.3000000 -20.4200000 -12.6900000   2.3000000
 -21.0400000 -13.3200000   3.6900000 -19.4800000 -13.2200000   3.4700000
 -20.5900000  -5.1700000   2.0400000 -21.5200000  -5.0500000   2.4200000
 -19.9600000  -4.3500000   1.0500000 -19.5300000  -5.0400000   0.3200000
 -18.7500000  -3.6400000   1.7200000 -17.6200000  -3.9300000   1.2800000
 -20.9700000  -3.3500000   0.3900000 -21.4800000  -2.7600000   1.1500000
 -21.7400000  -3.9900000  -0.0400000 -20.4500000  -2.4500000  -0.5100000
 -19.6500000  -2.8100000  -0.8900000 -18.9800000  -2.7400000   2.7400000
 -19.8800000  -2.9200000   3.1700000 -18.1300000  -1.9100000   3.4800000
 -17.7100000  -1.1300000   2.8600000 -16.9900000  -2.6800000   3.9900000
 -15.8500000  -2.2400000   3.9700000 -18.9200000  -1.3300000   4.6600000
 -19.5300000  -1.9900000   5.2800000 -19.8000000  -0.1500000   4.1400000
 -20.1900000  -0.4200000   3.1600000 -19.1000000   0.6400000   3.8700000
 -18.0400000  -0.7400000   5.8200000 -17.5700000  -1.5200000   6.4200000
 -18.6700000  -0.1000000   6.4300000 -17.1700000  -0.1800000   5.4700000
 -20.9600000   0.4500000   5.0200000 -21.6400000   1.0400000   4.4000000
 -20.5800000   1.0600000   5.8400000 -21.6000000  -0.3600000   5.3600000
 -17.1500000  -3.9900000   4.3100000 -18.0700000  -4.4000000   4.3500000
 -16.0300000  -4.8500000   4.7100000 -15.3600000  -4.2100000   5.2900000
 -15.1600000  -5.4900000   3.5600000 -13.9100000  -5.5100000   3.5300000
 -16.6300000  -5.8900000   5.6000000 -17.2000000  -5.4100000   6.4000000
 -17.1700000  -6.5700000   4.9400000 -15.4900000  -6.7200000   6.2400000
 -14.6400000  -6.0700000   6.4300000 -15.1500000  -7.6100000   5.7200000
 -15.9200000  -7.0800000   7.7000000 -15.5300000  -6.2700000   8.3100000
 -16.9700000  -6.8600000   7.9200000 -15.4900000  -8.3800000   8.2200000
 -16.0100000  -9.0900000   7.5800000 -15.9800000  -8.4800000   9.1900000
 -14.0400000  -8.6200000   8.3800000 -13.9500000  -9.5800000   8.6900000
 -13.4800000  -8.5100000   7.5500000 -13.5700000  -8.1600000   9.1500000
 -15.8900000  -5.7400000   2.4700000 -16.8300000  -5.3700000   2.5200000
 -15.0300000  -5.9600000   1.3100000 -14.3100000  -6.6900000   1.6900000
 -14.2700000  -4.7800000   0.7900000 -13.2000000  -5.0000000   0.2200000
 -15.8300000  -6.6000000   0.1500000 -16.7500000  -6.0600000  -0.0600000
 -15.2600000  -6.4600000  -0.7700000 -15.9500000  -8.0500000   0.5300000
 -15.1200000  -8.8800000   0.2400000 -16.9600000  -8.3800000   1.3000000
 -16.9400000  -9.2300000   1.8400000 -17.7500000  -7.7500000   1.3700000
 -14.6800000  -3.4800000   0.9800000 -15.5800000  -3.4000000   1.4200000
 -14.0400000  -2.3000000   0.3900000 -13.7200000  -2.5800000  -0.6200000
 -12.7900000  -1.9500000   1.1700000 -11.7400000  -1.7000000   0.5300000
 -15.0600000  -1.1500000   0.2800000 -14.4500000  -0.3100000  -0.0600000
 -15.3800000  -0.9100000   1.3000000 -16.3400000  -1.2800000  -0.5600000
 -16.9900000  -2.1000000  -0.2800000 -16.0000000  -1.6000000  -2.0200000
 -15.3900000  -2.5100000  -2.0100000 -16.8900000  -1.9200000  -2.5600000
 -15.4700000  -0.8400000  -2.5900000 -17.1200000   0.0700000  -0.6200000
 -17.3500000   0.4200000   0.3900000 -18.0900000  -0.1000000  -1.0900000
 -16.6800000   0.9200000  -1.1200000 -12.8900000  -1.8000000   2.5100000
 -13.7900000  -1.9300000   2.9500000 -11.6900000  -1.5600000   3.3400000
 -11.2000000  -0.6800000   2.9100000 -10.6000000  -2.6600000   3.3000000
  -9.4300000  -2.4000000   3.6500000 -12.0300000  -1.2000000   4.7800000
 -12.4800000  -0.2500000   5.0400000 -11.0800000  -1.1700000   5.3200000
 -12.9400000  -2.3200000   5.5200000 -13.0200000  -3.2800000   5.0200000
 -13.8800000  -1.8200000   5.7500000 -12.3800000  -2.7700000   6.8600000
 -12.9100000  -3.6600000   7.1800000 -11.3400000  -3.1000000   6.8900000
 -12.6400000  -1.7300000   7.8700000 -13.4300000  -1.1100000   7.7800000
 -12.0600000  -1.5200000   9.0500000 -11.0700000  -2.2300000   9.4400000
 -10.6600000  -2.8700000   8.7800000 -10.6600000  -1.9600000  10.3200000
 -12.4900000  -0.5600000   9.8900000 -12.1300000  -0.6200000  10.8300000
 -13.2800000  -0.0100000   9.6000000 -11.0600000  -3.9000000   3.0100000
 -12.0500000  -3.9600000   2.8400000 -10.0500000  -4.9800000   2.7000000
  -9.3000000  -5.1200000   3.4800000  -9.2700000  -4.6100000   1.4500000
  -8.0700000  -4.5300000   1.5200000 -10.7500000  -6.3900000   2.6900000
 -11.7100000  -6.2900000   2.1900000 -11.0800000  -6.5100000   3.7200000
 -10.0400000  -7.6900000   2.3500000  -9.9500000  -7.7400000   1.2600000
 -10.8200000  -8.4200000   2.5300000  -8.7000000  -7.9600000   3.0600000
  -8.8900000  -7.7400000   4.1100000  -7.9200000  -7.3200000   2.6500000
  -8.2200000  -9.4300000   2.9000000  -9.0500000 -10.0800000   2.6200000
  -7.8200000  -9.7400000   3.8600000  -7.1200000  -9.7000000   1.8900000
  -7.4400000  -9.4300000   0.9700000  -6.2300000  -9.2500000   2.0500000
  -6.8900000 -10.6800000   1.9600000  -9.9600000  -4.3800000   0.3200000
 -10.9500000  -4.4800000   0.4500000  -9.2800000  -4.0200000  -0.9600000
  -8.6500000  -4.8800000  -1.1700000  -8.4000000  -2.6900000  -1.0300000
  -7.3400000  -2.5600000  -1.6200000 -10.2800000  -3.9400000  -2.0200000
 -10.9900000  -3.1200000  -1.8900000 -10.9200000  -4.8200000  -1.9700000
  -9.6700000  -3.7300000  -3.3800000  -8.9200000  -4.6300000  -3.8300000
  -9.9700000  -2.6400000  -3.9700000  -8.8200000  -1.7800000  -0.1700000
  -9.7200000  -1.8500000   0.2800000  -8.1000000  -0.6200000   0.3400000
  -7.6400000  -0.0700000  -0.4800000  -6.7900000  -0.9500000   1.1500000
  -5.6500000  -0.6400000   0.7800000  -9.0800000   0.3300000   1.0800000
  -9.5200000  -0.2300000   1.9100000  -9.9300000   0.6100000   0.4600000
  -8.5700000   1.5500000   1.5500000  -8.0900000   2.5100000   0.7400000
  -8.1100000   2.4000000  -0.3400000  -8.2600000   1.9500000   2.9000000
  -7.6400000   3.5800000   1.5500000  -7.4100000   4.4900000   1.1800000
  -7.6900000   3.3000000   2.8800000  -8.4100000   1.3900000   4.1900000
  -8.9100000   0.4300000   4.1600000  -7.3200000   3.9900000   4.0200000
  -6.8700000   4.9700000   3.9200000  -8.2100000   2.1700000   5.3000000
  -8.4900000   1.6500000   6.2100000  -7.7100000   3.4500000   5.2700000
  -7.5200000   4.0100000   6.1700000  -6.9400000  -1.7000000   2.3200000
  -7.7900000  -2.0900000   2.6700000  -5.7700000  -2.1300000   3.1100000
  -5.1500000  -1.2500000   3.2900000  -4.8700000  -3.0700000   2.3100000
  -3.6500000  -2.9300000   2.3600000  -6.2200000  -2.7700000   4.4600000
  -7.0600000  -3.4200000   4.2100000  -6.8200000  -1.7200000   5.4300000
  -5.9400000  -1.3000000   5.9300000  -7.3300000  -0.9600000   4.8500000
  -5.1200000  -3.6100000   5.1400000  -5.5400000  -4.2300000   5.9400000
  -4.4500000  -2.9900000   5.7400000  -4.6100000  -4.2900000   4.4500000
  -7.7400000  -2.4300000   6.4400000  -7.1300000  -2.5800000   7.3300000
  -8.1200000  -3.3300000   5.9500000  -8.5900000  -1.7800000   6.6500000
  -5.3500000  -3.9300000   1.3900000  -6.3600000  -3.9700000   1.3200000
  -4.4600000  -4.7400000   0.5900000  -3.8500000  -5.4400000   1.1600000
  -3.5900000  -3.8300000  -0.2600000  -2.4100000  -4.0800000  -0.3300000
  -5.2800000  -5.7300000  -0.3300000  -6.0700000  -5.1400000  -0.7900000
  -4.6200000  -6.1800000  -1.0800000  -5.8700000  -6.9900000   0.3600000
  -5.3500000  -7.4500000   1.4200000  -6.8500000  -7.4900000  -0.1700000
  -4.2200000  -2.9000000  -1.0000000  -5.2200000  -3.0000000  -1.0900000
  -3.5600000  -2.0200000  -1.8900000  -3.0000000  -2.5500000  -2.6600000
  -2.4800000  -1.2700000  -1.1200000  -1.3000000  -1.3000000  -1.6000000
  -4.5600000  -1.1000000  -2.7100000  -5.2000000  -0.4700000  -2.1000000
  -5.0900000  -1.8000000  -3.3600000  -3.7800000  -0.2100000  -3.7000000
  -3.8000000   0.8300000  -3.3800000  -2.7400000  -0.5000000  -3.8100000
  -4.2800000  -0.2600000  -5.1800000  -4.1000000  -1.3300000  -5.3500000
  -3.6500000   0.3200000  -5.8500000  -5.7600000   0.0500000  -5.2600000
  -6.0100000   0.9900000  -4.7600000  -6.1600000  -0.7200000  -4.6000000
  -6.3200000   0.1500000  -6.5900000  -6.2300000  -0.7300000  -7.0800000
  -5.8600000   0.9000000  -7.1000000  -7.2900000   0.3700000  -6.4100000
  -2.8400000  -0.6900000   0.0400000  -3.8100000  -0.8400000   0.2700000
  -2.0300000   0.3400000   0.7100000  -1.6600000   1.0400000  -0.0300000
  -0.7300000  -0.2600000   1.2400000   0.3300000   0.3500000   1.3000000
  -2.8700000   1.0600000   1.7400000  -3.6600000   1.5400000   1.1700000
  -3.1800000   0.2400000   2.3900000  -2.2700000   2.2300000   2.5400000
  -1.7200000   2.8600000   1.8500000  -3.4900000   3.1300000   2.9600000
  -4.0500000   3.5100000   2.1000000  -4.0500000   2.6200000   3.7500000
  -3.1700000   4.0600000   3.4300000  -1.4800000   1.7100000   3.7500000
  -1.6800000   2.4100000   4.5700000  -1.7700000   0.7400000   4.1500000
  -0.4400000   1.4700000   3.5500000  -0.7500000  -1.5200000   1.6200000
  -1.6600000  -1.9100000   1.4300000   0.3000000  -2.3700000   2.0200000
   0.9800000  -1.8600000   2.7000000   1.2400000  -2.7600000   0.8000000
   2.3500000  -2.3000000   0.7600000  -0.2000000  -3.6000000   2.8700000
  -0.9900000  -4.0900000   2.3000000  -0.8500000  -3.2700000   4.2000000
  -1.6700000  -2.5800000   4.0800000  -1.3300000  -4.1400000   4.6400000
   0.8800000  -4.6500000   3.0800000   1.7100000  -4.1700000   3.6000000
   1.2200000  -5.1200000   2.1500000   0.5100000  -5.4800000   3.6800000
  -0.0100000  -2.6700000   5.3300000   0.5400000  -3.5300000   5.7200000
  -0.6300000  -2.3100000   6.1500000   0.6700000  -1.8800000   5.0100000
   0.7000000  -3.4700000  -0.2300000  -0.3000000  -3.6300000  -0.2100000
   1.5900000  -4.0100000  -1.2500000   2.3100000  -4.6400000  -0.7200000
   2.4000000  -2.8900000  -1.9700000   3.6500000  -2.9800000  -1.9600000
   0.9100000  -4.9000000  -2.2400000   0.1300000  -4.3000000  -2.7200000
   0.2900000  -5.6900000  -1.8100000   1.9300000  -5.6000000  -3.1800000
   2.8100000  -6.3200000  -2.7500000   1.6700000  -5.3500000  -4.4000000
   1.7400000  -1.8500000  -2.4200000   0.7700000  -1.8800000  -2.1700000
   2.3400000  -0.5000000  -2.7400000   2.7300000  -0.5600000  -3.7500000
   3.4900000  -0.0400000  -1.8700000   4.5000000   0.3800000  -2.4200000
   1.1600000   0.5200000  -2.7300000   0.3100000   0.0800000  -3.2600000
   0.7100000   0.6500000  -1.7500000   1.5300000   1.9500000  -3.1800000
   2.2300000   2.4600000  -2.5200000   0.6100000   2.5200000  -3.2400000
   2.1600000   2.0100000  -4.6000000   3.1400000   1.5400000  -4.6700000
   1.4900000   1.3300000  -5.1200000   1.9700000   3.4000000  -5.3000000
   2.4600000   4.2300000  -4.7700000   0.9000000   3.5900000  -5.3000000
   2.4600000   3.3700000  -6.6900000   3.4700000   3.3300000  -6.6300000
   2.2800000   4.2800000  -7.1000000   2.1900000   2.6300000  -7.3200000
   3.4500000  -0.0100000  -0.5600000   2.5200000  -0.2200000  -0.2200000
   4.4600000   0.6400000   0.3100000   4.9900000   1.3800000  -0.2900000
   5.6500000  -0.3200000   0.6300000   6.6900000   0.2200000   0.9200000
   3.9200000   1.3300000   1.5800000   3.0400000   0.8000000   1.9400000
   4.6200000   1.4700000   2.4000000   3.4900000   2.7500000   1.2300000
   4.2000000   3.6700000   1.0800000   2.1800000   2.9400000   0.9700000
   1.5000000   2.2200000   1.1500000   2.0000000   3.8600000   0.6000000
   5.4800000  -1.6400000   0.3600000   4.5900000  -2.0000000   0.0400000
   6.6400000  -2.5600000   0.3200000   7.2300000  -2.4100000   1.2300000
   7.4900000  -2.3500000  -0.9000000   8.7000000  -2.4800000  -0.8400000
   6.1300000  -3.9500000   0.3300000   6.8400000  -4.7300000   0.0600000
   5.4100000  -4.0200000  -0.4900000   5.4100000  -4.3600000   1.6500000
   4.3900000  -4.0100000   1.5000000   5.4500000  -5.4400000   1.5400000
   5.8700000  -3.9900000   3.0500000   7.0800000  -3.6200000   3.3000000
   4.9800000  -4.0600000   3.9100000   6.8800000  -1.8500000  -1.9900000
   5.9100000  -1.6100000  -1.8600000   7.6000000  -1.5100000  -3.3300000
   8.2300000  -2.3600000  -3.5700000   8.4200000  -0.2400000  -3.2000000
   9.6300000  -0.1800000  -3.1900000   6.6400000  -1.4100000  -4.5200000
   7.1200000  -0.9900000  -5.4000000   5.8000000  -0.7900000  -4.2400000
   6.1000000  -2.8300000  -4.8900000   6.7600000  -3.7500000  -5.2800000
   4.7300000  -2.9700000  -4.9300000   4.1500000  -2.2100000  -4.6100000
   4.2900000  -3.8500000  -5.1400000   7.6700000   0.8700000  -3.0300000
   6.6700000   0.8000000  -2.8700000   8.3900000   2.1400000  -3.3000000
   9.1200000   2.1600000  -4.1100000   9.3100000   2.5800000  -2.1800000
  10.0200000   3.5700000  -2.3200000   7.4300000   3.2800000  -3.5400000
   6.8300000   3.4500000  -2.6400000   8.0800000   4.1100000  -3.8200000
   6.5300000   3.1100000  -4.8000000   5.8600000   2.2700000  -4.6000000
   7.1800000   2.9100000  -5.6500000   5.7400000   4.3900000  -5.0400000
   4.9700000   4.5200000  -6.0400000   5.7800000   5.2900000  -4.1800000
   9.1800000   1.9900000  -0.9700000   8.3700000   1.4000000  -0.9000000
  10.0700000   2.1800000   0.1500000  10.1500000   3.2600000   0.2700000
  11.3900000   1.4900000  -0.0700000  12.4600000   1.8800000   0.3700000
   9.3900000   1.6100000   1.4000000   9.1300000   0.5600000   1.3500000
   8.4100000   2.0900000   1.4600000  10.1000000   1.9700000   2.6500000
  10.1400000   3.3600000   3.0000000   9.5100000   4.0800000   2.5100000
  10.9800000   1.1000000   3.3200000  11.0400000   0.0900000   2.9400000
  11.0000000   3.7400000   3.9700000  11.0300000   4.8000000   4.2000000
  11.8600000   1.5700000   4.2900000  12.5700000   1.0000000   4.8600000
  11.8700000   2.9200000   4.6400000  12.4500000   3.4000000   5.4200000
  11.4200000   0.2900000  -0.7500000  10.5800000   0.0400000  -1.2400000
  12.6200000  -0.3900000  -1.1000000  13.2400000  -0.4000000  -0.2000000
  13.2900000   0.2900000  -2.3700000  14.5400000   0.6400000  -2.4700000
  12.2800000  -1.9400000  -1.5100000  11.5000000  -1.9900000  -2.2700000
  11.9400000  -2.6800000  -0.3000000  12.7500000  -2.6500000   0.4200000
  11.0900000  -2.1700000   0.1600000  13.4900000  -2.7100000  -2.1600000
  13.3500000  -3.7900000  -2.2300000  13.5300000  -2.3200000  -3.1800000
  14.4100000  -2.5500000  -1.5900000  11.5100000  -4.1100000  -0.4600000
  11.0400000  -4.5500000   0.4200000  12.3400000  -4.7500000  -0.7400000
  10.7400000  -4.1400000  -1.2400000  12.5000000   0.4800000  -3.4200000
  11.5100000   0.3400000  -3.2600000  12.9000000   1.0100000  -4.7300000
  13.5400000   0.2500000  -5.1900000  13.7200000   2.3000000  -4.5600000
  14.7400000   2.4800000  -5.1900000  11.7200000   1.2000000  -5.6100000
  12.0700000   1.7200000  -6.5000000  10.9800000   1.7200000  -5.0100000
  11.2800000  -0.1500000  -6.1500000  11.0500000  -0.8500000  -5.3500000
  12.1500000  -0.5400000  -6.6900000  10.1400000  -0.1300000  -7.1000000
  10.1000000   0.8300000  -7.9300000   9.3500000  -1.0400000  -7.2300000
  13.2500000   3.2100000  -3.6800000  12.3600000   2.9900000  -3.2500000
  13.8100000   4.5800000  -3.5400000  14.0700000   4.9100000  -4.5400000
  15.1700000   4.5600000  -2.7800000  16.2700000   5.0100000  -3.2500000
  12.7500000   5.5600000  -2.9800000  12.6500000   5.4600000  -1.9000000
  11.8000000   5.2700000  -3.4100000  12.9800000   7.0900000  -3.2700000
  13.9700000   7.3900000  -2.9100000  12.9000000   7.2500000  -4.3500000
  11.8500000   7.9200000  -2.5700000  11.2500000   8.6400000  -3.1400000
  11.2900000   7.1900000  -1.9800000  12.4200000   8.7900000  -1.4800000
  11.6500000   9.2200000  -0.8300000  13.0100000   8.1300000  -0.8500000
  13.2500000   9.9700000  -1.9500000  13.8100000  10.3500000  -1.2000000
  12.6500000  10.7000000  -2.2900000  13.9300000   9.7000000  -2.6500000
  15.1200000   3.6800000  -1.7600000  14.2000000   3.3700000  -1.4900000
  16.2500000   3.2200000  -0.9800000  16.6100000   4.1100000  -0.4600000
  17.4800000   2.6800000  -1.7700000  18.6400000   2.9700000  -1.5000000
  15.9000000   2.3000000   0.1900000  15.4700000   1.4100000  -0.2800000
  16.7900000   1.9900000   0.7300000  14.9800000   2.9800000   1.0700000
  14.0700000   2.8200000   0.8100000  17.1800000   1.9300000  -2.8100000
  16.2000000   1.8500000  -3.0600000  18.2400000   1.3100000  -3.6300000
  19.1300000   1.2000000  -3.0000000  18.7100000   2.2600000  -4.7700000
  19.9300000   2.5000000  -4.8100000  17.9200000  -0.1500000  -4.0600000
  17.5000000  -0.6700000  -3.2000000  18.8300000  -0.6700000  -4.3700000
  16.9900000  -0.5000000  -5.2600000  15.7400000  -0.9400000  -5.0500000
  15.3900000  -0.8700000  -4.0300000  17.2400000  -0.5100000  -6.6800000
  15.0700000  -1.1200000  -6.2200000  14.1400000  -1.4900000  -6.3500000
  15.9300000  -0.8600000  -7.2800000  18.3300000  -0.2500000  -7.5000000
  19.3300000  -0.1500000  -7.1100000  15.7200000  -0.8100000  -8.5800000
  14.7200000  -1.0100000  -8.9400000  18.0500000  -0.1500000  -8.9400000
  18.8300000   0.1900000  -9.6100000  16.7100000  -0.3300000  -9.4600000
  16.4400000  -0.0400000 -10.4700000  17.7900000   2.8800000  -5.5900000
  16.8600000   2.7300000  -5.2300000  18.0000000   3.8900000  -6.7100000
  18.7000000   3.4100000  -7.4000000  18.6000000   5.2100000  -6.3300000
  19.4600000   5.6800000  -7.0900000  16.6800000   4.1400000  -7.4500000
  16.0700000   3.2600000  -7.2400000  16.3700000   5.1100000  -7.0500000
  16.8300000   4.2900000  -8.9400000  17.3300000   5.2500000  -8.9000000
  17.3500000   3.4600000  -9.4100000  15.4100000   4.3200000  -9.5000000
  15.5600000   4.5700000 -10.5400000  14.8300000   5.1100000  -9.0200000
  14.6900000   3.0100000  -9.4700000  14.2900000   2.9000000  -8.4700000
  15.3300000   2.1800000  -9.7900000  13.5300000   3.0700000 -10.4000000
  13.7800000   2.9100000 -11.3600000  13.1500000   3.9900000 -10.2400000
  12.7800000   2.4500000 -10.1200000  18.1200000   5.8300000  -5.2900000
  17.4700000   5.2800000  -4.7500000  18.4700000   7.1900000  -4.8600000
  18.9600000   7.5900000  -5.7400000  19.5100000   7.3500000  -3.7700000
  19.7600000   8.4900000  -3.4000000  17.1400000   7.9200000  -4.5800000
  16.6700000   7.5500000  -3.6700000  17.3600000   8.9500000  -4.3000000
  16.0100000   7.9300000  -5.6900000  16.4400000   7.7100000  -6.6700000
  15.3500000   7.0900000  -5.4700000  15.1600000   9.2100000  -5.6100000
  15.0600000   9.8700000  -6.6700000  14.6800000   9.5800000  -4.5500000
  20.0500000   6.2300000  -3.2000000  19.6600000   5.3800000  -3.5800000
  21.2400000   6.1600000  -2.3500000  21.8100000   7.0700000  -2.5100000
  22.2600000   5.0300000  -2.7000000  23.4600000   5.2600000  -2.9500000
  20.7700000   6.1600000  -0.8700000  19.9800000   5.4100000  -0.8000000
  20.3600000   7.1600000  -0.7500000  22.0100000   6.0700000   0.0700000
  23.0200000   6.7200000  -0.2100000  21.8200000   5.2800000   1.0500000
  21.7800000   3.7500000  -2.7400000  20.8800000   3.5900000  -2.3000000
  22.6500000   2.5100000  -2.7900000  23.5800000   2.8000000  -2.2900000
  23.0400000   2.2200000  -4.3300000  23.3000000   1.0400000  -4.7300000
  22.1200000   1.2300000  -1.9700000  21.2000000   0.9200000  -2.4800000
  22.7900000   0.3700000  -1.9800000  21.7500000   1.5600000  -0.4700000
  21.0700000   2.4100000  -0.3900000  23.0100000   2.0200000   0.2700000
  23.7500000   1.2300000   0.4400000  22.7100000   2.3600000   1.2600000
  23.4600000   2.8700000  -0.2300000  21.1100000   0.3400000   0.3300000
  21.1200000   0.7100000   1.3500000  20.1300000   0.2800000  -0.1500000
  21.7100000  -0.5600000   0.2000000  23.2700000   3.2600000  -5.1300000
  23.1800000   4.1800000  -4.7200000  23.4800000   3.1400000  -6.5300000
  23.9900000   2.1900000  -6.7100000  24.2500000   4.3300000  -7.1700000
  23.9800000   5.4200000  -6.6400000  22.0900000   3.0300000  -7.2700000
  21.7800000   4.0500000  -7.5000000  21.3300000   2.5500000  -6.6700000
  22.2500000   2.1800000  -8.5900000  22.6900000   2.7900000  -9.8400000
  22.8400000   3.8600000  -9.9200000  21.9900000   0.8200000  -8.5900000
  21.6700000   0.3300000  -7.6800000  23.0200000   1.9500000 -10.9400000
  23.4400000   2.2800000 -11.8800000  22.0700000   0.0300000  -9.7300000
  21.7500000  -1.0000000  -9.7600000  22.7100000   0.6000000 -10.8800000
  22.9100000  -0.1800000 -11.9800000  22.2000000  -0.6200000 -12.4500000
  24.8600000   4.2000000  -8.2400000  -0.2450000   6.4650000   9.8840000
   0.7770000   7.4620000   9.4930000   1.7250000   6.9680000   8.4680000
   1.4870000   7.5050000   7.1250000   2.0560000   6.6900000   6.0050000
   2.2480000   7.4930000   4.7380000   3.4850000   8.2820000   4.7560000
   1.1430000   5.6820000   5.6940000   1.4700000   4.4350000   5.9690000
   2.5730000   4.0440000   5.8790000   0.3110000   3.6710000   6.4120000
   0.3240000   3.1230000   7.6800000  -0.8680000   2.5760000   8.2760000
  -1.2150000   2.9590000   9.5340000  -2.3630000   2.4930000  10.1040000
  -3.1780000   1.6220000   9.4230000  -4.3120000   1.1940000  10.0310000
  -5.1160000   0.2810000   9.3260000  -2.8210000   1.2240000   8.1550000
  -1.6750000   1.6990000   7.5930000  -0.3020598   6.4093359  10.9811079
  -1.2233555   6.7653066   9.4807178   0.0309895   5.4795086   9.4807178
   0.2630098   8.3484476   9.0929691   1.3657493   7.6908769  10.3935496
   2.7434194   7.2469818   8.7762062   1.5841019   5.8789432   8.4039451
   0.3997347   7.5781725   6.9750005   2.0006835   8.4769976   7.0882575
   3.0321258   6.3105766   6.3414764   2.2830614   6.8011346   3.8835452
   1.4047634   8.1945143   4.6553579   3.7833838   8.4723191   5.7975113
   4.2824621   7.7253588   4.2419914   3.3164941   9.2398105   4.2419914
  -0.5567428   3.5333977   5.7501178   1.2660697   3.1038746   8.2475727
  -0.5663738   3.6481873  10.0946291  -2.6387204   2.8175863  11.1182100
  -5.6693214  -0.3473364  10.0394626  -5.8278792   0.8316086   8.6934985
  -4.4797902  -0.3555367   8.6934985  -3.4597554   0.5238362   7.5966433
  -1.3922561   1.3765104   6.5800556
