
  442  0.0000000e+00
  18.6800000  -6.0700000  11.7700000  18.9200000  -5.7700000  10.8400000
  19.3400000  -5.7400000  12.4700000  17.7300000  -5.9900000  12.1000000
  18.8500000  -7.5200000  11.7900000  18.7800000  -8.0000000  12.7700000
  19.8200000  -7.8600000  11.4200000  17.8500000  -8.1400000  10.8300000
  16.9000000  -7.3900000  10.5200000  18.1200000  -9.3200000  10.3000000
  18.8700000  -9.8900000  10.6600000  17.3200000  -9.8600000   9.2400000
  17.4900000  -9.2400000   8.3600000  15.7400000  -9.8500000   9.5400000
  14.9200000  -9.6200000   8.6300000  17.8300000 -11.2700000   8.9500000
  17.5700000 -11.9000000   9.8000000  18.8900000 -11.1100000   8.8000000
  17.4000000 -11.6400000   8.0200000  15.3800000 -10.1100000  10.7700000
  16.0700000 -10.1700000  11.5100000  14.0000000 -10.2300000  11.2100000
  13.4200000 -10.8400000  10.5200000  13.2700000  -8.8900000  11.2200000
  12.0600000  -8.7800000  10.9700000  13.9100000 -10.9100000  12.5400000
  14.4600000 -10.2100000  13.1700000  14.2600000 -11.9400000  12.5900000
  12.8700000 -10.9500000  12.8800000  13.9800000  -7.8000000  11.5100000
  14.9800000  -7.8800000  11.5500000  13.4800000  -6.4200000  11.5000000
  12.5600000  -6.4100000  12.0900000  13.2700000  -5.9900000  10.0900000
  12.3100000  -5.2900000   9.8300000  14.5500000  -5.5400000  12.1700000
  14.7000000  -5.9000000  13.1900000  15.4700000  -5.6100000  11.6000000
  14.2100000  -4.0800000  12.3200000  15.0600000  -3.5700000  12.7800000
  14.0900000  -3.5800000  11.3600000  12.9100000  -3.8000000  13.1900000
  12.5900000  -4.6100000  14.0400000  12.2400000  -2.7900000  12.9000000
  14.1400000  -6.5600000   9.2000000  14.8900000  -7.1300000   9.5600000
  14.1900000  -6.2100000   7.7900000  14.0300000  -5.1400000   7.7300000
  13.0600000  -6.8900000   6.9500000  12.4800000  -6.2300000   6.0900000
  15.5700000  -6.5600000   7.3200000  15.6600000  -6.0600000   6.3600000
  16.3200000  -6.1000000   7.9600000  15.6800000  -7.6400000   7.2600000
  12.7100000  -8.1300000   7.3200000  13.2800000  -8.5800000   8.0200000
  11.5200000  -8.8000000   6.8200000  11.6000000  -8.7500000   5.7300000
  10.1700000  -8.0900000   7.1300000   9.2700000  -8.0600000   6.3000000
  11.5100000 -10.3300000   7.2400000  11.0200000 -10.2800000   8.2100000
  10.8400000 -10.9200000   6.6200000  12.5200000 -10.7400000   7.2600000
  10.1200000  -7.4500000   8.3200000  10.8300000  -7.7300000   8.9800000
   9.0400000  -6.5800000   8.7400000   8.0800000  -7.0100000   8.4900000
   9.0700000  -5.1700000   8.0800000   8.0000000  -4.6900000   7.7300000
   8.9400000  -6.5400000  10.2700000   8.1800000  -5.8100000  10.5400000
   9.8300000  -6.1000000  10.7200000   8.6800000  -7.9100000  10.9300000
   9.2500000  -8.7100000  10.4800000   7.6100000  -8.1300000  10.9000000
   9.1600000  -7.8900000  12.3500000   8.6700000  -7.0500000  12.8400000
  10.2300000  -7.6700000  12.3500000   8.9900000  -9.1500000  12.9800000
   9.7700000  -9.7800000  13.0400000   7.9500000  -9.6400000  13.6100000
   6.8400000  -8.9400000  13.6000000   6.0000000  -9.3100000  14.0200000
   6.7100000  -8.2100000  12.9200000   8.0000000 -10.7600000  14.2600000
   7.1700000 -11.0200000  14.7700000   8.8200000 -11.3500000  14.1900000
  10.2100000  -4.6400000   7.7400000  10.9700000  -5.0700000   8.2500000
  10.4200000  -3.4000000   6.9300000   9.7000000  -2.6900000   7.3400000
  10.1100000  -3.5900000   5.4400000   9.6200000  -2.6900000   4.8000000
  11.8800000  -2.9100000   7.0700000  12.5800000  -3.3600000   6.3700000
  11.9300000  -1.9100000   6.6400000  12.1600000  -3.0100000   8.1200000
  10.4400000  -4.8000000   4.9200000  10.7400000  -5.5500000   5.5200000
  10.0900000  -5.1200000   3.5500000  10.3200000  -4.2500000   2.9300000
   8.5300000  -5.2300000   3.3500000   7.9700000  -4.7100000   2.3900000
  10.6700000  -6.4500000   3.1400000  11.7600000  -6.5300000   3.1600000
  10.4100000  -6.6800000   2.1000000  10.1600000  -7.2100000   3.7300000
   7.8500000  -5.8700000   4.3300000   8.3300000  -6.4200000   5.0300000
   6.4000000  -5.9900000   4.3200000   6.1300000  -6.3800000   3.3300000
   5.8500000  -4.6100000   4.4100000   5.0800000  -4.1900000   3.5400000
   5.8700000  -6.9600000   5.3800000   6.1900000  -7.9600000   5.0800000
   4.7800000  -6.9000000   5.4700000   6.2800000  -6.8100000   6.3700000
   6.1500000  -3.8000000   5.4500000   6.6900000  -4.2900000   6.1600000
   5.6400000  -2.4000000   5.7800000   4.6200000  -2.5200000   6.1500000
   5.6600000  -1.4100000   4.5500000   4.7300000  -0.6600000   4.2900000
   6.4200000  -1.8500000   6.9000000   7.4600000  -1.7000000   6.6200000
   6.5300000  -2.6500000   7.6500000   5.9900000  -0.9200000   7.2600000
   6.7200000  -1.5500000   3.7700000   7.4200000  -2.2500000   3.9900000
   6.9700000  -0.7200000   2.5700000   6.6700000   0.3000000   2.8200000
   6.1700000  -1.1100000   1.3100000   5.5600000  -0.2800000   0.7100000
   8.4800000  -0.8600000   2.4100000   8.8600000  -0.3600000   1.5200000
   8.7300000  -1.9200000   2.3300000   9.0400000  -0.4800000   3.2700000
   6.1000000  -2.4300000   0.9700000   6.7500000  -3.0600000   1.4200000
   5.1100000  -3.0100000   0.0700000   5.1900000  -2.4800000  -0.8800000
   3.6300000  -2.7400000   0.4700000   2.8500000  -2.4800000  -0.4200000
   5.3300000  -4.5500000  -0.2500000   5.4100000  -5.0000000   0.7400000
   6.4600000  -4.8600000  -1.2600000   7.3200000  -4.3100000  -0.8700000
   6.3000000  -4.5000000  -2.2800000   4.0600000  -5.2000000  -0.8000000
   3.2500000  -5.2000000  -0.0700000   4.1400000  -6.2900000  -0.8900000
   3.7600000  -4.7700000  -1.7600000   6.9000000  -6.3100000  -1.3000000
   7.8700000  -6.3800000  -1.8000000   6.9600000  -6.6800000  -0.2800000
   6.1900000  -6.9300000  -1.8500000   3.3100000  -2.8300000   1.7800000
   4.0200000  -3.0500000   2.4700000   1.9500000  -2.5300000   2.2800000
   1.2000000  -3.1500000   1.7900000   1.5500000  -1.1300000   1.8400000
   0.4500000  -0.9000000   1.3300000   1.9200000  -2.6000000   3.8200000
   2.7800000  -2.1000000   4.2500000   1.0200000  -2.0500000   4.1200000
   1.8700000  -4.0200000   4.4400000   1.0700000  -4.6200000   4.0100000
   2.8100000  -4.5800000   4.3400000   1.7300000  -3.9700000   5.9400000
   1.5200000  -4.9700000   6.3100000   2.5500000  -3.4500000   6.4500000
   0.5000000  -3.2100000   6.3200000  -0.0800000  -2.8500000   5.5800000
   0.0400000  -3.2000000   7.5600000   0.5700000  -3.8200000   8.6000000
   1.4300000  -4.3500000   8.5400000   0.2000000  -3.6000000   9.5100000
  -1.1600000  -2.7000000   7.6700000  -1.6000000  -2.0700000   7.0100000
  -1.5800000  -2.5600000   8.5800000   2.4900000  -0.1300000   2.0300000
   3.3600000  -0.4300000   2.4400000   2.2600000   1.3100000   1.6100000
   1.3800000   1.6500000   2.1500000   1.9300000   1.4800000   0.0900000
   0.8700000   2.0200000  -0.1400000   3.3600000   2.2800000   2.0800000
   3.3400000   3.2500000   1.5900000   3.2200000   2.4000000   3.1500000
   4.3300000   1.8100000   1.9000000   2.6700000   0.8500000  -0.7900000
   3.5400000   0.4500000  -0.4800000   2.4200000   0.8500000  -2.2400000
   2.3300000   1.8400000  -2.6700000   0.9900000   0.2500000  -2.4500000
   0.1200000   0.8600000  -3.1400000   3.4900000   0.0500000  -3.0500000
   3.7500000  -0.8100000  -2.4400000   3.0700000  -0.3300000  -4.4900000
   3.8400000  -0.9300000  -4.9700000   3.1200000   0.5700000  -5.1000000
   2.0800000  -0.8000000  -4.5200000   4.7900000   0.8900000  -3.1200000
   5.6200000   0.3100000  -3.5200000   5.1200000   1.1500000  -2.1100000
   4.6600000   1.7900000  -3.7200000   0.6500000  -0.8400000  -1.7200000
   1.3100000  -1.2300000  -1.0600000  -0.7300000  -1.4500000  -1.8300000
  -1.0300000  -1.5500000  -2.8700000  -1.8700000  -0.5300000  -1.3400000
  -2.9200000  -0.4900000  -1.9600000  -0.7800000  -2.8000000  -1.0500000
  -1.8300000  -3.0900000  -1.1400000  -0.6800000  -2.6800000   0.0300000
   0.0500000  -3.9400000  -1.7700000   1.1300000  -3.7700000  -1.7200000
  -0.2300000  -4.0400000  -2.8200000  -0.1600000  -5.2500000  -1.1000000
  -1.2000000  -5.6000000  -1.0200000   0.2500000  -5.1100000  -0.1000000
   0.5600000  -6.3400000  -1.7100000   0.9800000  -6.1500000  -2.6100000
   0.7900000  -7.6100000  -1.3300000   0.4800000  -8.0500000  -0.1800000
   0.0000000  -7.4400000   0.4700000   0.6000000  -9.0200000   0.0800000
   1.5600000  -8.2900000  -2.1100000   1.7700000  -8.0800000  -3.0800000
   1.8600000  -9.2300000  -1.9300000  -1.7100000   0.2600000  -0.2900000
  -0.8800000   0.0200000   0.2400000  -2.6600000   1.2400000   0.1800000
  -3.6600000   0.8300000   0.3000000  -2.8600000   2.3600000  -0.8600000
  -4.0200000   2.7600000  -1.1700000  -2.1800000   1.7600000   1.5300000
  -2.8600000   2.4800000   1.9900000  -1.9600000   1.0800000   2.3400000
  -1.3200000   2.3900000   1.3000000  -1.7700000   2.8600000  -1.5200000
  -0.8700000   2.5200000  -1.2100000  -1.8700000   3.9000000  -2.5400000
  -2.5500000   4.7100000  -2.2800000  -2.5000000   3.3700000  -3.8000000
  -3.1300000   4.2100000  -4.4800000  -0.4400000   4.4400000  -2.8500000
   0.2000000   3.6100000  -3.1500000  -0.0900000   4.9800000  -1.9700000
  -0.4900000   5.1300000  -3.7000000  -2.3800000   2.0800000  -4.1900000
  -1.6100000   1.6300000  -3.7000000  -2.9200000   1.4200000  -5.4500000
  -2.7500000   2.0600000  -6.3200000  -4.4400000   1.2400000  -5.1600000
  -5.2100000   1.3200000  -6.1300000  -2.3000000  -0.0300000  -5.5500000
  -3.0100000  -0.8000000  -5.8500000  -1.9900000  -0.2900000  -4.5400000
  -1.1500000  -0.1200000  -6.4900000  -0.3100000   0.4400000  -6.0800000
  -0.5600000  -1.5200000  -6.4600000  -1.2900000  -2.2500000  -6.8100000
   0.3800000  -1.6400000  -7.0000000  -0.2500000  -1.7300000  -5.4400000
  -1.4800000   0.1600000  -7.9200000  -0.5700000   0.1000000  -8.5100000
  -2.1700000  -0.5300000  -8.3900000  -1.8400000   1.1700000  -8.1200000
  -4.8600000   1.0400000  -3.8600000  -4.1700000   1.0500000  -3.1200000
  -6.2100000   0.7900000  -3.5200000  -6.7500000   0.2000000  -4.2600000
  -6.9300000   2.1500000  -3.5400000  -7.8900000   2.2700000  -4.2900000
  -6.2800000   0.1200000  -2.1200000  -7.2400000   0.3900000  -1.6700000
  -5.4200000   0.4200000  -1.5300000  -6.4200000  -1.3700000  -2.2600000
  -5.5500000  -1.7800000  -2.7700000  -7.2600000  -1.5000000  -2.9400000
  -6.7400000  -2.1600000  -0.9600000  -7.0800000  -3.1400000  -1.3200000
  -7.5700000  -1.7600000  -0.3700000  -5.4800000  -2.3700000  -0.1800000
  -4.9800000  -3.2000000  -0.4700000  -4.9600000  -1.6700000   0.8200000
  -5.6500000  -0.7700000   1.3900000  -6.5300000  -0.4200000   1.0400000
  -5.2400000  -0.2700000   2.1600000  -3.8200000  -1.9900000   1.3700000
  -3.4600000  -1.3800000   2.0900000  -3.2800000  -2.8000000   1.1000000
  -6.2800000   3.1800000  -3.0100000  -5.3900000   3.0000000  -2.5500000
  -6.8000000   4.5000000  -3.0200000  -7.8400000   4.4400000  -2.7000000
  -7.0100000   5.0300000  -4.4800000  -8.0900000   5.5200000  -4.8400000
  -5.9500000   5.3000000  -2.0400000  -6.2500000   6.3400000  -1.9700000
  -6.0700000   4.8200000  -1.0700000  -4.8900000   5.2100000  -2.2800000
  -5.9500000   5.0300000  -5.2700000  -5.1200000   4.6600000  -4.8200000
  -5.8600000   5.6600000  -6.6300000  -6.0100000   6.7200000  -6.4200000
  -6.8700000   5.0500000  -7.5600000  -7.7100000   5.7500000  -8.1600000
  -4.4100000   5.3800000  -7.1100000  -4.3500000   4.3400000  -7.4500000
  -3.7000000   5.7000000  -6.3400000  -4.2600000   6.0600000  -7.9600000
  -6.9900000   3.7000000  -7.6000000  -6.3800000   3.0900000  -7.0800000
  -8.1100000   3.0300000  -8.2900000  -8.0400000   3.4300000  -9.3000000
  -9.5400000   3.4600000  -7.7400000 -10.3200000   3.7900000  -8.5200000
  -7.8900000   1.5500000  -8.1900000  -7.1500000   1.2000000  -8.9100000
  -7.5000000   1.1800000  -7.2500000  -8.8700000   1.0800000  -8.2900000
  -9.7100000   3.6000000  -6.4500000  -9.0000000   3.2000000  -5.8600000
 -11.0800000   3.8300000  -5.9100000 -11.7100000   3.2500000  -6.5800000
 -11.5500000   5.2500000  -6.0400000 -12.7500000   5.5500000  -5.7700000
 -10.9300000   3.4400000  -4.4400000 -11.9100000   3.6500000  -4.0000000
 -10.6100000   2.4100000  -4.2700000 -10.1600000   4.0600000  -3.9900000
 -10.6300000   6.2300000  -6.0900000  -9.6500000   5.9800000  -6.0800000
 -10.9300000   7.6100000  -6.4400000 -11.7500000   7.9000000  -5.7800000
 -11.4900000   7.7200000  -7.8600000 -12.4900000   8.4300000  -8.1300000
  -9.6800000   8.4300000  -6.1500000  -8.8900000   7.9900000  -6.7600000
  -9.3300000   8.2700000  -5.1300000  -9.7000000   9.8300000  -6.5500000
  -9.8500000   9.9700000  -7.6200000 -10.7900000  10.6800000  -5.8100000
 -10.5600000  11.6900000  -6.1400000 -10.5600000  10.6900000  -4.7400000
 -11.7700000  10.3200000  -6.0900000  -8.3300000  10.3800000  -6.2400000
  -8.2600000  11.4400000  -6.4500000  -7.5700000   9.7500000  -6.7000000
  -8.2200000  10.3200000  -5.1500000 -10.7900000   7.0000000  -8.7400000
 -10.1400000   6.2800000  -8.4800000 -11.0600000   6.9900000 -10.1700000
 -11.0700000   8.0300000 -10.5000000 -12.5300000   6.5200000 -10.5000000
 -13.1900000   7.0200000 -11.4400000  -9.9300000   6.3600000 -10.9100000
  -8.9500000   6.8100000 -10.7600000 -10.1100000   6.3700000 -11.9800000
  -9.9200000   5.3000000 -10.6300000 -13.0400000   5.6700000  -9.6100000
 -12.3900000   5.3900000  -8.8900000 -14.4400000   5.2900000  -9.7000000
 -14.6100000   4.7200000 -10.6100000 -15.4100000   6.4900000  -9.5600000
 -16.1400000   6.7700000 -10.5300000 -14.6500000   4.2400000  -8.5500000
 -15.0200000   4.7200000  -7.6400000 -13.7500000   3.6500000  -8.3900000
 -15.4600000   3.5700000  -8.8500000 -15.3000000   7.2500000  -8.4700000
 -14.5100000   7.0400000  -7.8600000 -16.0700000   8.5300000  -8.2700000
 -17.1200000   8.3000000  -8.4300000 -15.5800000   9.7400000  -9.1200000
 -16.3000000  10.7000000  -9.3000000 -15.8400000   8.8700000  -6.8100000
 -15.9400000   8.0400000  -6.1100000 -14.8000000   9.1500000  -6.6600000
 -16.3900000   9.7900000  -6.5800000 -14.4600000   9.7300000  -9.8400000
 -13.9000000   8.8800000  -9.8000000 -14.1200000  10.7100000 -10.9300000
 -14.4400000  11.7000000 -10.6000000 -14.7100000  10.4700000 -12.2600000
 -14.6900000  11.3800000 -13.0800000 -12.5600000  10.8400000 -11.0700000
 -12.1400000   9.8500000 -11.2600000 -12.2200000  11.5200000 -11.8500000
 -11.7500000  11.3500000  -9.8100000 -12.0100000  10.7500000  -8.9400000
 -10.3100000  11.1900000 -10.0800000  -9.7600000  11.6200000  -9.2400000
 -10.0100000  11.7400000 -10.9800000 -10.0800000  10.1200000 -10.1000000
 -12.1800000  12.7900000  -9.4500000 -13.2300000  12.9400000  -9.1800000
 -11.8100000  13.3400000 -10.3100000 -11.5600000  13.0700000  -8.6100000
 -15.3200000   9.3100000 -12.5100000 -15.2300000   8.6500000 -11.7400000
 -15.9300000   8.8500000 -13.7800000 -15.4900000   9.4300000 -14.5900000
 -17.4200000   9.2700000 -14.0200000 -18.3100000   9.1200000 -13.1500000
 -15.7200000   7.2900000 -13.8900000 -14.6800000   7.2300000 -13.5600000
 -15.8400000   6.9100000 -14.9100000 -16.4900000   6.8000000 -13.3000000
 -17.7100000   9.6400000 -15.1600000  -7.2880000   5.2290000   1.3810000
  -7.9090000   6.4640000   1.6350000  -7.8250000   7.3940000   0.6750000
  -6.9270000   8.4510000   0.8410000  -6.7830000   9.3950000  -0.1440000
  -7.5420000   9.2770000  -1.2760000  -7.3450000  10.3020000  -2.3550000
  -8.2490000  11.0570000  -2.5840000  -6.0880000  10.4770000  -3.0230000
  -5.5600000   9.3750000  -3.6540000  -4.3240000   9.4890000  -4.2500000
  -3.6700000  10.6970000  -4.2090000  -4.1710000  11.7390000  -3.5910000
  -5.4130000  11.6320000  -3.0010000  -8.4680000   8.2590000  -1.4300000
  -9.2250000   8.2450000  -2.5380000  -8.6050000   7.3310000  -0.4430000
  -7.0417954   4.7393661   2.3347515  -7.9705034   4.5870502   0.8047278
  -6.3656761   5.3940120   0.8047278  -6.3336150   8.5266749   1.7641292
  -6.0736891  10.2274785  -0.0262816  -6.1124798   8.4242182  -3.6819300
  -3.8659481   8.6243037  -4.7524827  -2.6956183  10.7925960  -4.7104397
  -3.6096075  12.6837795  -3.5437752  -5.8549947  12.5088358  -2.5052181
  -9.8941661   7.5276771  -2.6712839  -9.3480261   6.5266227  -0.5473520
