
  315  0.0000000e+00
  -0.5720000  -8.0410000   7.7380000   0.0440000  -8.3780000   7.0120000
  -0.0060000  -7.7550000   8.5250000  -1.1450000  -8.7310000   8.2020000
  -1.4890000  -7.0300000   7.2140000  -1.9520000  -7.4510000   6.3210000
  -0.6960000  -5.7210000   6.8710000  -0.8420000  -4.7140000   7.5230000
  -2.6510000  -6.8170000   8.2100000  -2.2050000  -6.4730000   9.1420000
  -3.4110000  -6.1430000   7.8140000  -3.4040000  -7.9870000   8.8630000
  -3.0010000  -9.1750000   8.6670000  -4.2210000  -7.7110000   9.7580000
   0.2430000  -5.8930000   5.9460000   0.3720000  -6.7920000   5.5040000
   0.9930000  -4.7670000   5.3100000   1.4030000  -4.2140000   6.1550000
   0.3090000  -4.0750000   4.8180000   2.0780000  -5.1160000   4.2950000
   2.4560000  -6.2630000   4.0140000   2.4720000  -4.0240000   3.5620000
   2.3060000  -3.0560000   3.7990000   3.2910000  -4.2410000   2.3600000
   3.9190000  -5.1210000   2.4980000   2.6400000  -4.4130000   1.5030000
   4.2360000  -3.0940000   2.0550000   4.5010000  -2.2830000   2.9430000
   4.7810000  -2.9830000   0.8150000   4.3660000  -3.5770000   0.1120000
   5.4080000  -1.7410000   0.3450000   5.2720000  -0.8970000   1.0220000
   4.8720000  -1.2620000  -0.9660000   4.1630000  -2.0340000  -1.6650000
   6.8720000  -1.9520000   0.2660000   7.1320000  -2.3940000   1.2270000
   7.3920000  -1.0010000   0.1500000   7.4620000  -2.9120000  -0.7600000
   7.1220000  -2.7380000  -1.7820000   7.1890000  -3.9350000  -0.5030000
   9.0090000  -2.8310000  -0.6310000   9.6880000  -2.8300000  -1.6710000
   9.4770000  -2.8910000   0.5330000   5.1350000   0.0310000  -1.3130000
   5.6300000   0.5840000  -0.6270000   4.5590000   0.5660000  -2.5530000
   5.3550000   0.7320000  -3.2800000   3.8820000  -0.1280000  -3.0510000
   3.7980000   1.9040000  -2.3520000   4.2250000   2.7010000  -1.4570000
   2.7000000   2.1490000  -3.0380000   2.4550000   1.4860000  -3.7590000
   1.7450000   3.2270000  -2.8580000   0.7880000   2.9250000  -3.2830000
   1.5520000   3.2420000  -1.7850000   2.2010000   4.6550000  -3.2300000
   3.3750000   4.8710000  -3.5570000   1.4230000   5.7280000  -3.2270000
   0.4290000   5.5570000  -3.1750000   1.9680000   7.1100000  -3.3140000
   2.8410000   7.0410000  -3.9630000   2.4650000   7.5440000  -1.9510000
   1.7990000   7.3010000  -0.9390000   0.9920000   8.0850000  -4.0730000
   0.1180000   8.0740000  -3.4220000   0.6290000   7.6630000  -5.5440000
   0.5290000   6.5780000  -5.5690000  -0.3760000   8.0270000  -5.7560000
   1.4350000   9.5640000  -4.1480000   1.3270000   9.9690000  -3.1410000
   2.4710000   9.6260000  -4.4790000   0.8250000  10.3080000  -4.6600000
   1.4810000   8.1740000  -6.7310000   1.2880000   7.6450000  -7.6640000
   1.1950000   9.1980000  -6.9700000   2.5440000   8.1110000  -6.4960000
   3.5710000   8.2510000  -1.9180000   4.0450000   8.3770000  -2.8010000
   4.1040000   8.9210000  -0.7250000   5.0070000   9.4330000  -1.0570000
   3.4090000   9.6990000  -0.4100000   4.6230000   8.0580000   0.4210000
   4.9620000   8.6070000   1.4340000   4.7910000   6.7360000   0.1980000
   4.3540000   6.3910000  -0.6450000   5.1660000   5.7500000   1.1730000
   5.6250000   4.8460000   0.7730000   5.9390000   6.1990000   1.7970000
   3.9350000   5.2780000   1.9880000   2.9580000   5.9660000   2.0750000
   4.1210000   4.1880000   2.7200000   5.0870000   3.8970000   2.7850000
   3.1440000   3.4490000   3.5830000   3.2170000   3.8330000   4.6010000
   2.1290000   3.5820000   3.2080000   3.4370000   1.9660000   3.6450000
   3.8960000   1.3680000   2.6750000   2.9700000   1.2730000   4.6470000
   2.6150000   1.8400000   5.4040000   2.9080000  -0.1640000   4.9070000
   2.9070000  -0.6530000   3.9330000   1.6680000  -0.6030000   5.7020000
   1.5170000  -1.7800000   6.0450000   4.1840000  -0.6890000   5.5150000
   4.4720000  -0.3080000   6.4950000   4.0000000  -1.7620000   5.5720000
   5.3100000  -0.5050000   4.6700000   5.1370000  -1.1350000   3.9670000
   0.9080000   0.3670000   6.1700000   0.9180000   1.2390000   5.6590000
   0.0140000   0.1020000   7.3920000  -0.1880000   1.0120000   7.9570000
   0.5410000  -0.5960000   8.0410000  -1.2910000  -0.6310000   7.1110000
  -2.2260000  -0.6590000   7.8830000  -1.4010000  -1.2770000   5.9600000
  -0.5450000  -1.3700000   5.4310000  -2.6850000  -1.5300000   5.2360000
  -2.7300000  -2.5100000   4.7600000  -3.5520000  -1.5740000   5.8950000
  -2.9930000  -0.4560000   4.1630000  -2.0270000   0.1080000   3.6140000
  -4.2790000  -0.1350000   3.9160000  -5.0360000  -0.5810000   4.4150000
  -4.6720000   0.4860000   2.6940000  -3.8740000   0.3340000   1.9690000
  -5.0350000   1.9630000   2.8060000  -5.8610000   2.4410000   2.0780000
  -5.9150000  -0.3390000   2.1350000  -6.2390000   0.0570000   1.1730000
  -6.7530000  -0.2530000   2.8260000  -5.6450000  -1.7970000   1.9630000
  -6.1530000  -2.8220000   2.6170000  -6.8780000  -2.6080000   3.3880000
  -4.6920000  -2.3570000   0.9990000  -5.5520000  -3.9800000   2.1760000
  -5.8510000  -4.8990000   2.4710000  -4.6170000  -3.7090000   1.2130000
  -3.7890000  -1.7430000   0.1190000  -4.0350000  -0.7180000  -0.1170000
  -3.7130000  -4.5590000   0.5740000  -3.7520000  -5.6230000   0.7550000
  -2.9490000  -2.6300000  -0.6710000  -2.2830000  -2.2920000  -1.4510000
  -2.9340000  -4.0320000  -0.4740000  -2.2590000  -4.6790000  -1.0150000
  -4.4970000   2.6300000   3.8190000  -3.8980000   2.1230000   4.4540000
  -4.7110000   4.0340000   4.1220000  -4.2990000   4.1780000   5.1210000
  -5.7820000   4.2200000   4.2010000  -3.9490000   5.0550000   3.2080000
  -3.8440000   4.8670000   1.9710000  -3.4780000   6.0960000   3.8290000
  -3.6660000   6.1940000   4.8160000  -3.0040000   7.3710000   3.1830000
  -3.8360000   7.7190000   2.5710000  -1.8950000   7.1600000   2.1900000
  -0.7710000   6.8800000   2.5420000  -2.6710000   8.3990000   4.3000000
  -3.6070000   8.5790000   4.8290000  -1.8190000   8.0960000   4.9090000
  -2.2820000   9.7590000   3.7400000  -2.6030000   9.9970000   2.5330000
  -1.8740000  10.6260000   4.5410000  -2.1510000   7.3630000   0.8830000
  -3.0580000   7.7410000   0.6510000  -1.3440000   6.8930000  -0.1890000
  -1.1980000   7.6580000  -0.9520000  -0.3870000   6.5200000   0.1750000
  -1.7780000   5.6630000  -1.0700000  -1.2960000   5.5370000  -2.2050000
  -2.7080000   4.7670000  -0.7010000  -3.1150000   4.7900000   0.2230000
  -3.3640000   3.8730000  -1.6640000  -2.5510000   3.4290000  -2.2390000
  -4.3130000   4.6520000  -2.5170000  -4.2390000   4.5170000  -3.7310000
  -3.9130000   2.6970000  -0.9330000  -3.0960000   2.1610000  -0.4500000
  -4.4370000   3.0060000  -0.0280000  -4.7000000   1.8300000  -1.7910000
  -4.0750000   0.9680000  -2.7220000  -3.0090000   0.9930000  -2.8930000
  -6.0830000   1.6200000  -1.5340000  -6.4020000   2.2710000  -0.7330000
  -4.8740000   0.1300000  -3.5610000  -4.4530000  -0.4420000  -4.3750000
  -6.9050000   0.7640000  -2.2960000  -7.9780000   0.8520000  -2.2110000
  -6.2500000   0.0730000  -3.3050000  -6.8870000  -0.6090000  -3.8480000
  -5.1080000   5.5270000  -1.8730000  -5.2550000   5.6320000  -0.8800000
  -6.1170000   6.2620000  -2.6060000  -6.4880000   7.0760000  -1.9830000
  -6.8410000   5.5170000  -2.9370000  -5.5710000   6.9160000  -3.8940000
  -6.2170000   6.8490000  -4.9520000  -4.4250000   7.5630000  -3.8620000
  -3.9200000   7.8400000  -3.0320000  -3.7740000   7.9980000  -5.1120000
  -2.8450000   8.5350000  -4.9180000  -4.4820000   8.6880000  -5.5710000
  -3.4950000   6.9030000  -6.1330000  -3.9770000   6.8750000  -7.3030000
  -2.6800000   5.9290000  -5.6360000  -2.3880000   5.8770000  -4.6700000
  -2.5780000   4.5670000  -6.2520000  -3.5770000   4.1310000  -6.2710000
  -2.2410000   4.7090000  -7.2790000  -1.5450000   3.6800000  -5.5140000
  -0.7980000   3.9950000  -4.5990000  -1.5150000   2.4230000  -5.9760000
  -1.8230000   2.2430000  -6.9210000  -0.4680000   1.4420000  -5.5490000
  -0.3920000   1.6020000  -4.4740000   0.9240000   1.6860000  -6.1510000
   1.0700000   2.6140000  -6.9770000  -1.1150000   0.0560000  -5.7480000
  -1.2040000  -0.1870000  -6.8070000  -2.1490000   0.1220000  -5.4120000
  -0.6270000  -1.2130000  -5.0760000   0.2860000  -1.5830000  -5.5430000
  -0.3050000  -0.8840000  -3.6340000  -1.0940000  -0.1900000  -3.3410000
   0.7300000  -0.5420000  -3.6320000  -0.4010000  -1.7360000  -2.9620000
  -1.6790000  -2.3450000  -5.1510000  -2.6900000  -2.1150000  -4.8150000
  -1.3570000  -3.2220000  -4.5900000  -1.8310000  -2.5830000  -6.2040000
   1.8750000   0.8070000  -5.7390000   1.6060000   0.0500000  -5.1270000
   3.2190000   0.7510000  -6.2760000   3.1880000   0.7670000  -7.3660000
   3.8900000   1.5680000  -6.0080000   3.9530000  -0.5540000  -5.8260000
   5.2040000  -0.5380000  -5.7630000   3.3200000  -1.6520000  -5.5590000
   2.3170000  -1.7390000  -5.6450000   3.9960000  -2.8590000  -5.0950000
   4.7230000  -2.6830000  -4.3020000   4.6070000  -3.2800000  -5.8930000
   3.0440000  -3.9500000  -4.6570000   1.9040000  -4.0620000  -5.1140000
   3.3700000  -4.6310000  -3.5940000   4.2060000  -4.4640000  -3.0530000
   2.5930000  -5.7410000  -3.0700000   1.5520000  -5.4210000  -3.0360000
   2.9730000  -6.0190000  -1.6900000   3.9530000  -5.5530000  -1.0750000
   2.7900000  -7.0380000  -3.9860000   2.3880000  -6.6930000  -4.9390000
   3.8470000  -7.2740000  -4.1010000   2.0010000  -8.2420000  -3.6170000
   0.6000000  -8.2500000  -3.7110000   0.1040000  -7.4150000  -4.1830000
   2.6340000  -9.3340000  -3.0970000   3.7060000  -9.3880000  -2.9790000
  -0.1500000  -9.3630000  -3.2950000  -1.2230000  -9.2860000  -3.2020000
   1.8760000 -10.4590000  -2.6020000   2.4340000 -11.1860000  -2.0300000
   0.4870000 -10.4490000  -2.6820000  -0.3020000 -11.5060000  -2.3830000
  -1.2220000 -11.2450000  -2.2970000   2.1410000  -6.9010000  -1.0830000
   1.5890000  -7.4740000  -1.7050000   2.1610000  -7.3660000   0.2660000
   2.9170000  -8.1480000   0.3480000   2.5280000  -6.6390000   0.9900000
   0.8760000  -8.0840000   0.6790000   0.0050000  -8.3410000  -0.2180000
   0.7410000  -8.4240000   1.9500000   1.4750000  -8.1190000   2.5730000
  -0.4660000  -9.0320000   2.4860000  -1.3030000  -8.6110000   1.9290000
  -0.6590000  -8.6160000   3.9110000   0.2900000  -8.7140000   4.7230000
  -0.5230000 -10.5190000   2.2210000  -1.4220000 -10.9950000   2.6120000
  -0.5020000 -10.7630000   1.1590000   0.5340000 -11.1660000   2.8970000
   1.2490000 -10.5970000   3.1900000  -1.7980000  -8.3040000   4.3450000
  -3.0910000  -5.6810000   1.8340000  -2.2850000  -5.4420000   0.6800000
  -1.6110000  -4.2530000   0.5420000  -1.7580000  -3.2010000   1.4480000
  -1.0560000  -2.0210000   1.2600000  -0.2050000  -1.8730000   0.1690000
   0.5700000  -0.6030000  -0.0420000   1.3730000  -0.5670000  -0.9440000
   0.4110000   0.5840000   0.8340000  -0.8420000   1.0960000   1.1410000
  -0.9560000   2.2250000   1.9310000   0.1630000   2.8300000   2.4680000
   1.4180000   2.3360000   2.1550000   1.5500000   1.2250000   1.3210000
  -0.0580000  -2.9340000  -0.7240000   0.7920000  -2.8070000  -1.7820000
  -0.7630000  -4.1150000  -0.5270000  -2.4943000  -5.5041000   2.7410000
  -3.9552000  -5.0004000   1.8250000  -3.4445000  -6.7226000   1.8250000
  -2.4312000  -3.3088000   2.3113000  -1.1723000  -1.1958000   1.9780000
  -1.7462000   0.6026000   0.7550000  -1.9513000   2.6468000   2.1344000
   0.0584000   3.6961000   3.1380000   2.3154000   2.8217000   2.5658000
   2.5497000   0.8557000   1.0484000   0.9024000  -3.5552000  -2.4208000
  -0.6398000  -4.9475000  -1.2354000
