
  649  0.0000000e+00
  -5.5470000  16.2060000  18.4000000  -6.2830000  16.6260000  18.9510000
  -5.8880000  15.9710000  17.4790000  -4.7660000  16.8430000  18.4670000
  -5.1750000  14.9670000  19.0410000  -4.8320000  15.1100000  20.0660000
  -4.0980000  14.2920000  18.1880000  -4.2490000  14.0680000  16.9930000
  -6.3620000  14.0060000  19.1590000  -6.8030000  13.9950000  18.1620000
  -7.0510000  14.3800000  19.9160000  -6.0110000  12.7480000  19.6790000
  -6.7000000  12.1400000  19.4010000  -2.9420000  13.9830000  18.7890000
  -2.6630000  14.4030000  19.6640000  -1.9580000  13.0220000  18.2430000
  -1.5550000  13.4920000  17.3470000  -2.4450000  11.6470000  17.6810000
  -1.8890000  11.1100000  16.7010000  -0.7370000  12.9240000  19.1320000
  -0.6570000  13.9740000  19.4140000   0.5790000  12.3140000  18.6260000
   0.3720000  11.3170000  18.2370000   1.3460000  12.2690000  19.3990000
  -1.2160000  12.2350000  20.3980000  -1.4280000  11.1720000  20.2740000
  -2.0960000  12.7590000  20.7720000  -0.4600000  12.3150000  21.1780000
   1.1530000  13.1820000  17.5260000   0.4360000  13.3930000  16.7320000
   1.4340000  14.1400000  17.9630000   2.1110000  12.7920000  17.1820000
  -3.4980000  11.0270000  18.2720000  -3.9010000  11.4670000  19.0870000
  -4.0670000   9.7150000  17.9790000  -3.3050000   8.9380000  17.9250000
  -4.6770000   9.7440000  16.5590000  -4.2730000   8.9910000  15.7240000
  -4.9710000   9.2410000  19.1020000  -4.3250000   9.0780000  19.9650000
  -5.6900000  10.0170000  19.3640000  -5.7580000   8.0130000  18.7230000
  -6.4750000   8.3280000  17.9630000  -5.1870000   7.2830000  18.1500000
  -6.4800000   7.2940000  19.9150000  -7.0790000   8.0600000  20.4060000
  -5.8150000   6.9040000  20.6850000  -7.4300000   6.2280000  19.3970000
  -6.8890000   5.4970000  18.7950000  -8.1140000   6.6900000  18.6850000
  -8.0270000   5.3860000  20.4170000  -7.2210000   4.9810000  20.8710000
  -8.5520000   6.0010000  21.0230000  -8.5800000   4.6280000  20.0440000
  -5.4560000  10.7770000  16.2780000  -5.6870000  11.2800000  17.1220000
  -6.0230000  11.0650000  14.9880000  -6.6030000  10.1950000  14.6790000
  -4.9510000  11.2630000  13.8670000  -5.1060000  10.7960000  12.7610000
  -6.9870000  12.2580000  15.1040000  -7.7620000  12.1540000  15.8630000
  -6.4040000  13.1340000  15.3880000  -7.6140000  12.6390000  13.9200000
  -8.4070000  12.1210000  13.7620000  -3.7990000  11.9390000  14.2350000
  -3.6750000  12.0840000  15.2270000  -2.7290000  12.1500000  13.2770000
  -3.1580000  12.5440000  12.3560000  -1.9620000  10.8270000  12.9410000
  -1.8310000  10.3680000  11.7900000  -1.8230000  13.2970000  13.8900000
  -1.7290000  13.0610000  14.9500000  -2.5040000  14.6740000  13.8120000
  -2.6540000  14.9520000  12.7690000  -3.5100000  14.7310000  14.2300000
  -0.4800000  13.2450000  13.1320000  -0.5840000  13.0320000  12.0680000
   0.1550000  12.5020000  13.6130000   0.0650000  14.1880000  13.1840000
  -1.8470000  15.7940000  14.6200000  -2.5170000  16.6530000  14.5950000
  -1.8100000  15.5600000  15.6840000  -0.9670000  16.1420000  14.0800000
  -1.7260000  10.0150000  13.9810000  -1.8490000  10.3440000  14.9280000
  -0.9630000   8.7090000  13.9630000  -0.0020000   8.8750000  13.4780000
  -1.7010000   7.7040000  13.1810000  -1.0340000   6.9810000  12.4700000
  -0.7320000   8.2670000  15.3880000  -1.4970000   8.6160000  16.0830000
  -0.6060000   7.1870000  15.4660000   0.5380000   8.8110000  15.9890000
   0.5080000   9.8880000  16.1520000   1.3110000   8.7700000  15.2210000
   1.0720000   8.1630000  17.3440000   0.5770000   8.5910000  18.2160000
   0.8700000   7.0920000  17.3110000   2.5270000   8.3480000  17.4610000
   2.7660000   9.3820000  17.2160000   3.0480000   7.8480000  16.6440000
   2.8980000   7.8940000  18.7730000   2.8830000   6.8930000  18.9080000
   3.8670000   8.1500000  18.8940000   2.4930000   8.3470000  19.5800000
  -3.0480000   7.7520000  13.2580000  -3.4520000   8.4180000  13.9000000
  -3.9060000   6.9460000  12.4330000  -3.6550000   5.8850000  12.4590000
  -3.9180000   7.3410000  10.9610000  -3.8900000   6.4150000  10.1820000
  -5.3030000   7.1610000  13.0870000  -6.0860000   6.7090000  12.4790000
  -5.4050000   8.2460000  13.1090000  -5.5900000   6.6590000  14.4760000
  -4.8380000   5.9880000  15.1540000  -6.7640000   6.8980000  14.8560000
  -7.1700000   6.3380000  15.5920000  -7.4190000   7.4780000  14.3510000
  -3.8220000   8.6080000  10.5790000  -3.8790000   9.3000000  11.3120000
  -3.7500000   9.0980000   9.1590000  -4.4170000   8.5250000   8.5160000
  -2.3520000   8.7190000   8.6120000  -2.2420000   8.3310000   7.4350000
  -4.0600000  10.6220000   9.0530000  -5.0830000  10.7230000   9.4150000
  -3.3770000  11.1900000   9.6840000  -4.1170000  11.1470000   7.6290000
  -3.1310000  10.8170000   7.3030000  -5.2630000  10.6380000   6.7400000
  -4.9340000  10.8100000   5.7150000  -5.5160000   9.5780000   6.7090000
  -6.1660000  11.2250000   6.9050000  -4.0790000  12.7010000   7.6800000
  -4.0260000  13.0040000   6.6340000  -5.0450000  13.0910000   8.0030000
  -3.2700000  13.0690000   8.3100000  -1.2820000   8.7670000   9.3620000
  -1.3180000   9.2470000  10.2500000   0.0350000   8.2140000   8.9430000
   0.2560000   8.6090000   7.9520000  -0.1080000   6.7000000   8.5570000
   0.3590000   6.2420000   7.5220000   1.2470000   8.5500000   9.8650000
   1.2650000   9.6320000   9.9980000   1.0810000   8.0880000  10.8380000
   2.6250000   8.0820000   9.3480000   2.7440000   8.0890000   8.2650000
   2.6650000   7.0310000   9.6340000   3.9680000   8.6580000   9.8900000
   4.2010000   8.4300000  10.9300000   4.8050000   8.2200000   9.3460000
   3.9470000  10.1560000   9.8540000   3.4590000  10.6450000  10.5910000
   4.5410000  10.9410000   8.9620000   5.1460000  10.5820000   7.8350000
   5.7740000  11.2250000   7.3740000   5.0670000   9.6160000   7.5510000
   4.4550000  12.1770000   9.2580000   4.0570000  12.4160000  10.1550000
   4.9270000  12.8120000   8.6290000  -0.6630000   5.9240000   9.4870000
  -0.9330000   6.3080000  10.3810000  -0.8650000   4.4480000   9.3380000
   0.0630000   3.9530000   9.0510000  -1.8000000   4.0850000   8.1990000
  -1.5720000   3.0640000   7.5260000  -1.2710000   3.8680000  10.7200000
  -0.6010000   4.2030000  11.5120000  -2.3500000   3.9960000  10.8080000
  -1.1250000   2.3130000  10.6700000  -1.5400000   1.8650000   9.7670000
  -0.0720000   2.0300000  10.6380000  -1.7330000   1.6420000  11.9280000
  -2.7720000   1.9700000  11.9370000  -1.1970000   1.9130000  12.8380000
  -1.6790000   0.0900000  11.8540000  -2.0020000  -0.1580000  12.8650000
  -0.6590000  -0.2410000  11.6580000  -2.6870000  -0.3770000  10.8830000
  -3.4510000   0.2610000  10.7080000  -2.1530000  -0.4700000  10.0310000
  -3.0440000  -1.2970000  11.1000000  -2.8270000   4.9200000   7.9290000
  -3.0800000   5.6300000   8.6020000  -3.6590000   4.6690000   6.7900000
  -3.9760000   3.6310000   6.8890000  -2.8830000   4.7590000   5.4380000
  -3.2110000   3.9550000   4.5970000  -4.8840000   5.6150000   6.7310000
  -4.5700000   6.5900000   7.1040000  -5.2460000   5.7990000   5.7200000
  -6.0450000   5.1340000   7.5310000  -5.8880000   4.2130000   8.4100000
  -7.2150000   5.5600000   7.3010000  -1.9800000   5.7410000   5.1900000
  -1.9800000   6.5260000   5.8270000  -1.3090000   6.0020000   3.9180000
  -2.0200000   5.8890000   3.1000000  -0.2700000   4.9010000   3.6400000
  -0.0390000   4.5200000   2.4930000  -0.7720000   7.3820000   3.9080000
   0.1090000   7.4330000   3.2680000  -0.3570000   7.6360000   4.8830000
  -1.6170000   8.4570000   3.3990000  -2.1910000   9.4460000   4.2230000
  -2.0710000   9.6130000   5.2840000  -2.0320000   8.6970000   2.0410000
  -2.8920000  10.2420000   3.3700000  -3.3780000  11.0800000   3.6570000
  -2.8780000   9.7880000   2.0620000  -1.7620000   8.0830000   0.7900000
  -1.1760000   7.1780000   0.8590000  -3.5330000  10.3140000   0.9400000
  -4.1880000  11.1700000   1.0080000  -2.4310000   8.5570000  -0.3800000
  -2.2860000   8.0630000  -1.3300000  -3.3390000   9.6050000  -0.2270000
  -3.9280000   9.9030000  -1.0820000   0.3320000   4.3860000   4.6970000
   0.0560000   4.7770000   5.5860000   1.2590000   3.2350000   4.6830000
   1.9620000   3.4480000   3.8780000   0.4910000   1.9400000   4.2800000
   0.7810000   1.2670000   3.3300000   2.0880000   3.0910000   5.9630000
   1.3860000   2.8980000   6.7750000   2.7380000   4.3660000   6.3440000
   3.4540000   4.5270000   5.5390000   2.0990000   5.2480000   6.3960000
   3.0880000   1.8830000   5.8980000   2.5490000   0.9710000   5.6430000
   3.5310000   1.8540000   6.8930000   3.8900000   1.9950000   5.1670000
   3.5520000   4.3520000   7.6480000   3.6520000   5.3840000   7.9840000
   2.9950000   3.8110000   8.4130000   4.5170000   3.9180000   7.3880000
  -0.6970000   1.6450000   4.9550000  -0.9520000   2.2430000   5.7280000
  -1.4870000   0.4620000   4.6080000  -0.9010000  -0.4450000   4.7570000
  -1.9510000   0.5300000   3.0770000  -2.0050000  -0.4100000   2.3280000
  -2.7990000   0.5070000   5.4910000  -3.4900000  -0.2390000   5.0980000
  -3.3500000   1.4470000   5.4730000  -2.6550000   0.1180000   6.9410000
  -1.6880000  -0.5750000   7.3230000  -3.5990000   0.2860000   7.7300000
  -2.3970000   1.7150000   2.6010000  -2.4550000   2.4160000   3.3250000
  -2.6260000   2.0340000   1.1330000  -3.4900000   1.4970000   0.7430000
  -1.5750000   1.5620000   0.1200000  -1.8060000   0.9490000  -0.9090000
  -2.9540000   3.5020000   0.8970000  -2.9170000   3.6140000  -0.1860000
  -2.3010000   4.2060000   1.4130000  -4.3920000   3.8570000   1.3440000
  -4.4740000   3.9420000   2.4270000  -5.0940000   3.0690000   1.0700000
  -4.7360000   5.2290000   0.7930000  -4.6780000   5.2630000  -0.2950000
  -3.9710000   5.9130000   1.1590000  -6.1530000   5.7320000   1.2620000
  -6.2760000   6.7550000   0.9080000  -6.1260000   5.7630000   2.3510000
  -7.3460000   5.0090000   0.7760000  -7.6950000   4.4470000   1.5390000
  -7.2030000   4.4820000  -0.0740000  -8.0550000   5.6510000   0.4510000
  -0.3120000   1.8430000   0.4490000  -0.2530000   2.2080000   1.3890000
   0.8350000   1.6110000  -0.4320000   0.4980000   1.6400000  -1.4680000
   1.4530000   0.2490000  -0.3220000   1.9400000  -0.3120000  -1.3170000
   1.7630000   2.7940000  -0.3160000   1.7770000   3.2190000   0.6870000
   2.7970000   2.5890000  -0.5920000   1.3490000   4.0240000  -1.2070000
   0.3290000   3.9640000  -1.5880000   1.4800000   5.3530000  -0.5290000
   0.8200000   5.3530000   0.3390000   2.5220000   5.6070000  -0.3350000
   0.9790000   6.1440000  -1.0870000   2.1910000   4.1290000  -2.4800000
   2.3490000   3.1200000  -2.8620000   3.1410000   4.6120000  -2.2520000
   1.6450000   4.6920000  -3.2370000   1.2830000  -0.3700000   0.8830000
   1.0180000   0.1920000   1.6790000   1.3630000  -1.8550000   1.0510000
   2.3660000  -2.1930000   0.7930000   0.4470000  -2.5580000   0.0720000
   0.9150000  -3.3380000  -0.7760000   1.1260000  -2.2970000   2.5250000
   0.3160000  -1.6400000   2.8410000   2.3780000  -1.9430000   3.3680000
   2.7570000  -0.9640000   3.0730000   3.0860000  -2.7610000   3.2360000
   0.6940000  -3.7240000   2.7950000   0.4730000  -3.9850000   3.8300000
   1.3630000  -4.4700000   2.3660000  -0.2600000  -3.9400000   2.3140000
   2.0540000  -1.9570000   4.8270000   2.8900000  -1.5080000   5.3630000
   1.8860000  -2.9710000   5.1870000   1.2020000  -1.2790000   4.8820000
  -0.8000000  -2.1890000   0.0510000  -1.1650000  -1.5350000   0.7290000
  -1.8530000  -2.7650000  -0.8260000  -1.8080000  -3.8530000  -0.7770000
  -1.6010000  -2.4740000  -2.2930000  -1.9540000  -3.3010000  -3.1180000
  -3.2800000  -2.4020000  -0.3820000  -3.8770000  -2.9930000  -1.0770000
  -3.4520000  -1.3400000  -0.5550000  -3.7310000  -2.9010000   0.9810000
  -3.0990000  -3.7920000   1.4950000  -4.8440000  -2.5230000   1.4320000
  -1.1550000  -1.3170000  -2.6910000  -0.9350000  -0.5840000  -2.0310000
  -0.7700000  -0.9000000  -4.0470000  -1.5500000  -1.0990000  -4.7810000
   0.4190000  -1.6490000  -4.6170000   0.2840000  -2.2440000  -5.6670000
  -0.4700000   0.6400000  -4.1230000   0.5300000   0.7680000  -3.7080000
  -1.2000000   1.2030000  -3.5420000  -0.4320000   1.2480000  -5.5330000
   0.3610000   0.7080000  -6.0500000  -1.3820000   1.0810000  -6.0390000
   0.0230000   2.6820000  -5.5640000   0.9370000   2.6630000  -4.9710000
  -0.7100000   3.2310000  -4.9730000   0.2810000   3.2620000  -7.0290000
   0.4110000   4.3420000  -6.9690000  -0.6920000   3.1900000  -7.5150000
   1.3720000   2.6550000  -7.8950000   2.1360000   2.3360000  -7.3170000
   1.0580000   1.8380000  -8.3990000   1.7770000   3.3530000  -8.5020000
   1.5770000  -1.7380000  -3.8480000   1.4490000  -1.4180000  -2.8980000
   2.7710000  -2.5930000  -4.2630000   2.9660000  -2.3490000  -5.3070000
   2.4590000  -4.0660000  -4.1060000   3.1420000  -4.7780000  -4.8460000
   3.9060000  -2.0980000  -3.4350000   4.7710000  -2.7570000  -3.5090000
   3.5820000  -2.0630000  -2.3950000   4.3930000  -0.7640000  -3.8670000
   4.7950000  -0.3980000  -4.9920000   4.3820000   0.1400000  -2.8540000
   4.5270000   1.0560000  -3.2540000   3.9770000  -0.0380000  -1.9460000
   1.5410000  -4.6520000  -3.2830000   1.1990000  -4.0330000  -2.5620000
   1.0130000  -6.0000000  -3.3740000   1.7820000  -6.7710000  -3.3370000
   0.2930000  -6.2580000  -4.7150000   0.7740000  -6.9820000  -5.5940000
   0.1940000  -6.2850000  -2.1410000  -0.5050000  -5.4840000  -1.9030000
   0.8810000  -6.3620000  -1.2980000  -0.6240000  -7.6060000  -2.2900000
  -1.2990000  -7.5840000  -3.1460000   0.0780000  -8.4110000  -2.5100000
  -1.3680000  -7.9480000  -1.0640000  -0.9110000  -7.8070000   0.0870000
  -2.5690000  -8.2800000  -1.2990000  -0.8240000  -5.5710000  -5.0220000
  -1.1180000  -4.9360000  -4.2940000  -1.6360000  -5.9230000  -6.1310000
  -1.7790000  -6.9920000  -5.9750000  -0.9110000  -5.6970000  -7.4670000
  -1.2340000  -6.4180000  -8.4550000  -2.9650000  -5.1700000  -6.1290000
  -3.4700000  -5.4620000  -7.0500000  -2.7820000  -4.1050000  -5.9850000
  -3.8790000  -5.6850000  -5.0620000  -4.5930000  -6.6730000  -5.3180000
  -3.8660000  -5.1230000  -3.8950000  -4.4690000  -5.4870000  -3.1710000
  -3.3280000  -4.2830000  -3.7360000   0.0910000  -4.7750000  -7.5770000
   0.2560000  -4.1460000  -6.8040000   0.9460000  -4.5630000  -8.7470000
   0.2910000  -4.5310000  -9.6170000   1.8890000  -5.8460000  -8.8340000
   1.9950000  -6.3660000  -9.9150000   1.7300000  -3.2480000  -8.6560000
   2.5070000  -3.2850000  -9.4190000   2.2390000  -3.2300000  -7.6920000
   0.8090000  -2.0510000  -8.8780000  -0.0170000  -1.9850000  -8.1700000
   0.3770000  -2.0810000  -9.8780000   1.5350000  -0.7450000  -8.8770000
   2.7250000  -0.7480000  -8.5370000   0.8970000   0.3220000  -9.1410000
   2.5430000  -6.3150000  -7.7940000   2.2920000  -5.8920000  -6.9120000
   3.4750000  -7.3960000  -7.7800000   4.3680000  -7.2150000  -8.3770000
   2.7480000  -8.7550000  -8.1680000   3.2180000  -9.7120000  -8.8250000
   3.9890000  -7.4850000  -6.3710000   4.6290000  -6.6230000  -6.1850000
   3.1270000  -7.3370000  -5.7210000   4.7090000  -8.7400000  -6.0360000
   6.1250000  -8.7310000  -6.1290000   6.6660000  -7.8110000  -6.2940000
   4.0460000  -9.9120000  -5.6870000   2.9720000 -10.0230000  -5.6750000
   6.8400000  -9.8410000  -5.6770000   7.9140000  -9.7720000  -5.5880000
   4.7910000 -11.1110000  -5.4230000   4.3400000 -12.0290000  -5.0760000
   6.1640000 -11.0920000  -5.4340000   6.7960000 -11.9230000  -5.1560000
   1.4880000  -8.7950000  -7.8070000   1.2030000  -7.9590000  -7.3170000
   0.4280000  -9.7770000  -8.1490000   0.8660000 -10.7720000  -8.0640000
   0.2140000  -9.7080000  -9.6210000   0.2770000 -10.7790000 -10.2480000
  -0.8820000  -9.6380000  -7.3410000  -1.1310000  -8.5810000  -7.2510000
  -0.5560000 -10.1210000  -5.9380000  -0.4350000 -11.2030000  -5.8910000
   0.2740000  -9.5860000  -5.4770000  -2.1060000 -10.3740000  -7.9010000
  -2.9580000 -10.2070000  -7.2420000  -2.3580000  -9.9710000  -8.8820000
  -1.9600000 -11.4530000  -7.9580000  -1.7690000  -9.8170000  -5.0060000
  -2.5760000 -10.5140000  -5.2290000  -1.4760000 -10.0960000  -3.9940000
  -2.3170000  -8.8770000  -5.0740000  -0.0580000  -8.5340000 -10.2050000
  -0.2060000  -7.6900000  -9.6700000  -0.2320000  -8.4460000 -11.6650000
  -0.9910000  -9.1860000 -11.9200000   1.0570000  -8.7510000 -12.4900000
   0.9690000  -9.3530000 -13.5530000  -0.8330000  -7.0320000 -11.9810000
  -0.2360000  -6.1670000 -11.6940000  -1.8000000  -6.9880000 -11.4810000
  -1.2300000  -6.8490000 -13.4470000  -1.7480000  -7.7750000 -13.6990000
  -0.2830000  -6.9160000 -13.9820000  -1.9660000  -5.5790000 -13.7190000
  -2.7370000  -5.1550000 -12.8300000  -1.8010000  -4.9300000 -14.7570000
   2.2360000  -8.3510000 -12.0400000   2.1700000  -7.8720000 -11.1530000
   3.5540000  -8.7470000 -12.5670000   3.5570000  -8.4790000 -13.6240000
   3.8210000 -10.2720000 -12.5090000   4.3100000 -10.8710000 -13.4580000
   4.6650000  -7.9100000 -11.9200000   4.3860000  -6.8570000 -11.9260000
   4.9330000  -8.3700000 -10.9680000   5.9990000  -7.9670000 -12.7440000
   5.9070000  -7.5600000 -13.7520000   6.3060000  -9.0010000 -12.9020000
   7.2040000  -7.2250000 -12.1640000   7.9920000  -7.2550000 -12.9160000
   6.9830000  -6.1790000 -11.9530000   7.6860000  -7.8750000 -10.8650000
   8.2380000  -7.0610000 -10.3960000   6.8950000  -8.1340000 -10.1620000
   8.6670000  -8.9830000 -11.0730000   8.7060000  -9.6090000 -10.2810000
   8.3430000  -9.5420000 -11.8490000   9.5860000  -8.6250000 -11.2870000
   3.3240000 -10.8110000 -11.3750000   2.9320000 -10.2680000 -10.6190000
   3.3370000 -12.2940000 -11.2940000   4.3850000 -12.5760000 -11.3930000
   2.4980000 -12.9120000 -12.3510000   2.9470000 -13.8790000 -12.9770000
   2.9060000 -12.6980000  -9.9210000   3.5900000 -12.2410000  -9.2050000
   1.8800000 -12.4090000  -9.6940000   2.9640000 -14.1450000  -9.8300000
   3.1730000 -14.3370000  -8.9130000   1.2600000 -12.4630000 -12.4680000
   0.9970000 -11.6450000 -11.9380000   0.2900000 -13.1200000 -13.4070000
   0.1720000 -14.1600000 -13.1030000   0.7480000 -13.1080000 -14.8610000
   0.5390000 -14.0880000 -15.6720000  -1.0160000 -12.3560000 -13.4640000
  -0.7600000 -11.3280000 -13.7210000  -1.6100000 -12.7950000 -14.2650000
  -1.9250000 -12.4280000 -12.2870000  -1.9280000 -13.3510000 -11.3380000
  -1.2380000 -14.1740000 -11.2280000  -2.9950000 -11.4530000 -11.8750000
  -2.8170000 -13.0600000 -10.3480000  -2.9490000 -13.6930000  -9.5720000
  -3.6010000 -11.9260000 -10.6770000  -3.6520000 -10.3840000 -12.6040000
  -3.2620000 -10.0060000 -13.5370000  -4.5370000 -11.1470000 -10.0280000
  -4.9020000 -11.4070000  -9.0460000  -4.7160000  -9.6750000 -11.9890000
  -5.0960000  -8.8610000 -12.5900000  -5.0380000 -10.0010000 -10.6390000
  -5.7260000  -9.4310000 -10.0320000   1.4760000 -12.0300000 -15.1520000
   1.4520000 -11.2340000 -14.5300000   2.1300000 -11.8010000 -16.4900000
   1.4680000 -12.0570000 -17.3170000   3.4270000 -12.5670000 -16.6310000
   3.6790000 -13.0770000 -17.7460000   2.3240000 -10.2590000 -16.7130000
   2.7090000  -9.8550000 -15.7770000   3.0430000  -9.9630000 -17.4770000
   0.9100000  -9.7170000 -16.9440000   0.2740000  -9.8230000 -16.0650000
   0.3450000 -10.2830000 -17.6840000   0.8090000  -8.3220000 -17.3890000
  -0.2130000  -8.1590000 -17.7320000   1.3720000  -8.1840000 -18.3120000
   1.2650000  -7.2380000 -16.3640000   1.3400000  -7.6980000 -15.3790000
   2.3240000  -7.0900000 -16.5740000   0.5450000  -5.9330000 -16.4600000
   0.9810000  -5.2880000 -15.8170000  -0.4400000  -6.0050000 -16.2490000
   0.5380000  -5.6230000 -17.4210000   4.3150000 -12.6650000 -15.5550000
   4.0610000 -12.2770000 -14.6580000   5.5410000 -13.4100000 -15.5720000
   6.0890000 -13.2010000 -16.4910000   5.3070000 -14.9400000 -15.6600000
   6.1270000 -15.7480000 -16.1610000   6.4400000 -13.0500000 -14.3550000
   5.7950000 -13.0080000 -13.4770000   7.2820000 -13.7370000 -14.2750000
   7.0830000 -11.6690000 -14.6120000   7.7720000 -11.7020000 -15.4560000
   6.3160000 -10.9700000 -14.9470000   7.9130000 -11.1500000 -13.4480000
   7.8200000 -11.5650000 -12.2880000   8.7270000 -10.2240000 -13.6800000
   4.2370000 -15.4600000 -15.1490000   3.7280000 -14.8440000 -14.5320000
   3.8170000 -16.8690000 -15.3010000   4.7190000 -17.4660000 -15.1660000
   3.2820000 -17.1990000 -16.5950000   3.1620000 -18.3940000 -16.8530000
   2.7300000 -17.3280000 -14.2550000   1.9220000 -16.6070000 -14.3780000
   2.4250000 -18.3580000 -14.4440000   3.3010000 -17.3290000 -12.8650000
   4.5190000 -17.3480000 -12.7030000   2.4390000 -17.3540000 -11.9590000
   3.0660000 -16.3020000 -17.5790000   3.0850000 -15.3260000 -17.3210000
   2.5110000 -16.6480000 -18.9160000   2.3050000 -17.7180000 -18.9460000
   3.5250000 -16.3130000 -20.1380000   3.5100000 -16.9770000 -21.2030000
   1.2070000 -15.9470000 -19.1060000   0.8420000 -15.9090000 -20.1320000
   1.3470000 -14.8990000 -18.8420000   0.0500000 -16.5120000 -18.2400000
   0.3460000 -16.6680000 -17.2030000  -1.1410000 -15.5680000 -18.2450000
  -0.7880000 -14.6060000 -17.8760000  -1.9390000 -15.9810000 -17.6280000
  -1.4740000 -15.3410000 -19.2580000  -0.5200000 -17.7670000 -18.8730000
  -1.5010000 -18.0440000 -18.4890000  -0.6600000 -17.5620000 -19.9350000
   0.2490000 -18.5400000 -18.8610000   4.4330000 -15.3350000 -19.9130000
   4.3870000 -14.8560000 -19.0250000   5.2650000 -14.6690000 -20.9110000
   5.1030000 -15.2460000 -21.8220000   6.7930000 -14.6290000 -20.7040000
   7.4460000 -14.9510000 -21.6850000   4.6130000 -13.3090000 -21.2410000
   4.6820000 -12.5580000 -20.4540000   5.2520000 -12.9330000 -22.0410000
   3.1880000 -13.2070000 -21.8050000   2.9100000 -13.4400000 -23.1550000
   3.6910000 -13.7670000 -23.8250000   2.2200000 -12.8130000 -20.9190000
   2.4450000 -12.4250000 -19.9370000   1.5430000 -13.4220000 -23.5230000
   1.2770000 -13.6960000 -24.5330000   0.8880000 -12.9160000 -21.2910000
   0.1090000 -12.4890000 -20.6760000   0.4910000 -13.2420000 -22.6160000
  -0.8300000 -13.2090000 -22.9940000  -0.9010000 -13.6190000 -23.8590000
   7.3680000 -14.4090000 -19.5920000  -0.4110000  12.1720000   6.7860000
  -0.2580000  11.1270000   5.7370000   1.1200000  10.5910000   5.4970000
   1.2550000   9.1210000   5.2940000   2.0100000   8.7260000   4.0670000
   1.3290000   9.3710000   2.8730000   2.2290000  10.0260000   1.8660000
   3.3590000   9.1570000   4.2250000   4.3480000   8.3230000   4.6320000
   5.2450000   8.7020000   5.3160000   4.2090000   6.9170000   4.1430000
   4.9340000   6.4770000   3.1300000   4.7530000   5.1290000   2.5120000
   4.0280000   4.1890000   3.1980000   3.8530000   2.9110000   2.6840000
   4.3990000   2.5680000   1.4620000   4.2630000   1.3340000   0.9330000
   5.1580000   0.2970000   1.3300000   5.1300000   3.5270000   0.7600000
   5.2990000   4.8130000   1.2820000  -0.3428118  11.7062705   7.7802064
   0.3870457  12.9210857   6.6764840  -1.3902955  12.6608625   6.6764840
  -0.8979418  10.2783248   6.0202400  -0.5338343  11.6277569   4.7972352
   1.5155122  11.0865280   4.5980995   1.6703646  10.7997863   6.4262508
   1.7764188   8.7012336   6.1668795   0.2343930   8.7300137   5.1695372
   2.0179303   7.6377395   3.9069181   0.7560712   8.5898077   2.3519519
   0.7157154  10.1835928   3.2896233   3.0113976  10.5954116   2.3890912
   2.6960793   9.2551092   1.2354730   1.6390727  10.7074848   1.2354730
   3.4937454   6.2400578   4.6330613   5.7118417   7.1379780   2.7200361
   3.5793513   4.4505305   4.1676990   3.2761713   2.1671335   3.2531497
   5.1994764   0.2489430   2.4281668   4.8024850  -0.6657081   0.9340174
   6.1623419   0.5079389   0.9340174   5.5767702   3.2692979  -0.2115894
   5.8634683   5.5693214   0.7168863
