%VERSION  VERSION_STAMP = V0001.000  DATE = 10/06/26  20:21:14
%FLAG TITLE
%FORMAT(20a4)

%FLAG POINTERS
%FORMAT(10I8)
      29      20      12      18      23      24      40      36       0       0
     139       1      18      24      36       9      11      60       1       0
       0       0       0       0       0       0       0       0      29       0
       0
%FLAG ATOM_NAME
%FORMAT(20a4)
C1x O1x C2x C3x C4x C5x C6x O2x C7x C8x C9x C10xC11xC12xC13xO3x C14xH1x H2x H3x 
H4x H5x H6x H7x H8x H9x H10xH11xH12x
%FLAG CHARGE
%FORMAT(5E16.8)
  2.03605864E+00 -5.82868604E+00  3.41002006E+00 -4.68250337E+00 -3.45595973E-01
 -5.38588415E+00  1.10670305E+01 -1.03514609E+01 -2.99876285E+00 -1.59382352E+00
 -2.57782772E+00 -1.93093607E+00 -2.57782772E+00 -1.59382352E+00  4.19357896E+00
 -9.07589990E+00 -3.95361137E+00  8.81985711E-01  8.81985711E-01  8.81985711E-01
  2.60641663E+00  2.64286123E+00  2.67019468E+00  2.50619398E+00  2.46063823E+00
  2.50619398E+00  2.67019468E+00  8.34644113E+00  3.13486333E+00
%FLAG ATOMIC_NUMBER
%FORMAT(10I8)
       6       8       6       6       6       6       6       8       6       6
       6       6       6       6       6       8       6       1       1       1
       1       1       1       1       1       1       1       1       1
%FLAG MASS
%FORMAT(5E16.8)
  1.20107800E+01  1.59994300E+01  1.20107800E+01  1.20107800E+01  1.20107800E+01
  1.20107800E+01  1.20107800E+01  1.59994300E+01  1.20107800E+01  1.20107800E+01
  1.20107800E+01  1.20107800E+01  1.20107800E+01  1.20107800E+01  1.20107800E+01
  1.59994300E+01  1.20107800E+01  1.00794700E+00  1.00794700E+00  1.00794700E+00
  1.00794700E+00  1.00794700E+00  1.00794700E+00  1.00794700E+00  1.00794700E+00
  1.00794700E+00  1.00794700E+00  1.00794700E+00  1.00794700E+00
%FLAG ATOM_TYPE_INDEX
%FORMAT(10I8)
      13      14      15      15      15      15      15      16      15      15
      15      15      15      15      15      17      15      18      18      18
      19      19      19      19      19      19      19      20      19
%FLAG NUMBER_EXCLUDED_ATOMS
%FORMAT(10I8)
       7      10      12       8       9      12      12       4      10       8
       7       7       5       4       5       3       3       2       1       1
       1       1       1       1       1       1       1       1       1
%FLAG NONBONDED_PARM_INDEX
%FORMAT(10I8)
       1       2       4       7      11      16      22      29      37      46
      56      67      79      92     106     121     137     154     172     191
       2       3       5       8      12      17      23      30      38      47
      57      68      80      93     107     122     138     155     173     192
       4       5       6       9      13      18      24      31      39      48
      58      69      81      94     108     123     139     156     174     193
       7       8       9      10      14      19      25      32      40      49
      59      70      82      95     109     124     140     157     175     194
      11      12      13      14      15      20      26      33      41      50
      60      71      83      96     110     125     141     158     176     195
      16      17      18      19      20      21      27      34      42      51
      61      72      84      97     111     126     142     159     177     196
      22      23      24      25      26      27      28      35      43      52
      62      73      85      98     112     127     143     160     178     197
      29      30      31      32      33      34      35      36      44      53
      63      74      86      99     113     128     144     161     179     198
      37      38      39      40      41      42      43      44      45      54
      64      75      87     100     114     129     145     162     180     199
      46      47      48      49      50      51      52      53      54      55
      65      76      88     101     115     130     146     163     181     200
      56      57      58      59      60      61      62      63      64      65
      66      77      89     102     116     131     147     164     182     201
      67      68      69      70      71      72      73      74      75      76
      77      78      90     103     117     132     148     165     183     202
      79      80      81      82      83      84      85      86      87      88
      89      90      91     104     118     133     149     166     184     203
      92      93      94      95      96      97      98      99     100     101
     102     103     104     105     119     134     150     167     185     204
     106     107     108     109     110     111     112     113     114     115
     116     117     118     119     120     135     151     168     186     205
     121     122     123     124     125     126     127     128     129     130
     131     132     133     134     135     136     152     169     187     206
     137     138     139     140     141     142     143     144     145     146
     147     148     149     150     151     152     153     170     188     207
     154     155     156     157     158     159     160     161     162     163
     164     165     166     167     168     169     170     171     189     208
     172     173     174     175     176     177     178     179     180     181
     182     183     184     185     186     187     188     189     190     209
     191     192     193     194     195     196     197     198     199     200
     201     202     203     204     205     206     207     208     209     210
%FLAG RESIDUE_LABEL
%FORMAT(20a4)
LIG 
%FLAG RESIDUE_POINTER
%FORMAT(10I8)
       1
%FLAG BOND_FORCE_CONSTANT
%FORMAT(5E16.8)
  2.84800000E+02  3.57500000E+02  3.78600000E+02  2.72700000E+02  6.52600000E+02
  3.65600000E+02  3.75900000E+02  3.95700000E+02  5.63500000E+02
%FLAG BOND_EQUIL_VALUE
%FORMAT(5E16.8)
  1.43200000E+00  1.37000000E+00  1.39800000E+00  1.49100000E+00  1.21800000E+00
  1.36400000E+00  1.09700000E+00  1.08600000E+00  9.73000000E-01
%FLAG ANGLE_FORCE_CONSTANT
%FORMAT(5E16.8)
  6.61000000E+01  6.24000000E+01  8.73000000E+01  6.88000000E+01  4.87000000E+01
  6.64000000E+01  8.62000000E+01  6.50000000E+01  8.72000000E+01  5.07000000E+01
  3.88000000E+01
%FLAG ANGLE_EQUIL_VALUE
%FORMAT(5E16.8)
  2.05879039E+00  1.91602245E+00  2.08043247E+00  2.09474417E+00  2.09230071E+00
  2.10015469E+00  2.13977366E+00  2.06140838E+00  2.09264977E+00  1.89507850E+00
  1.89298411E+00
%FLAG DIHEDRAL_FORCE_CONSTANT
%FORMAT(5E16.8)
  3.62500000E+00  1.05000000E+01  1.10000000E+00  1.61000000E+00  1.61000000E+00
  3.62500000E+00  3.62500000E+00  3.62500000E+00  3.62500000E+00  3.83333333E-01
  3.83333333E-01  3.83333333E-01  3.62500000E+00  3.62500000E+00  3.62500000E+00
  3.62500000E+00  3.62500000E+00  3.62500000E+00  3.62500000E+00  5.22000000E-01
  1.00000000E+00  3.62500000E+00  3.62500000E+00  1.00000000E+00  1.00000000E+00
  8.35000000E-01  3.62500000E+00  3.62500000E+00  3.62500000E+00  3.62500000E+00
  3.62500000E+00  3.62500000E+00  3.62500000E+00  3.62500000E+00  5.22000000E-01
  5.22000000E-01  5.22000000E-01  1.00000000E+00  3.62500000E+00  3.62500000E+00
  3.62500000E+00  3.62500000E+00  3.62500000E+00  3.62500000E+00  3.62500000E+00
  3.62500000E+00  3.62500000E+00  3.62500000E+00  3.62500000E+00  3.62500000E+00
  3.62500000E+00  3.62500000E+00  3.62500000E+00  3.62500000E+00  8.35000000E-01
  3.62500000E+00  3.62500000E+00  3.62500000E+00  3.62500000E+00  3.62500000E+00
%FLAG DIHEDRAL_PERIODICITY
%FORMAT(5E16.8)
  2.00000000E+00  2.00000000E+00  2.00000000E+00  2.00000000E+00  2.00000000E+00
  2.00000000E+00  2.00000000E+00  2.00000000E+00  2.00000000E+00  3.00000000E+00
  3.00000000E+00  3.00000000E+00  2.00000000E+00  2.00000000E+00  2.00000000E+00
  2.00000000E+00  2.00000000E+00  2.00000000E+00  2.00000000E+00  2.00000000E+00
  2.00000000E+00  2.00000000E+00  2.00000000E+00  2.00000000E+00  2.00000000E+00
  2.00000000E+00  2.00000000E+00  2.00000000E+00  2.00000000E+00  2.00000000E+00
  2.00000000E+00  2.00000000E+00  2.00000000E+00  2.00000000E+00  2.00000000E+00
  2.00000000E+00  2.00000000E+00  2.00000000E+00  2.00000000E+00  2.00000000E+00
  2.00000000E+00  2.00000000E+00  2.00000000E+00  2.00000000E+00  2.00000000E+00
  2.00000000E+00  2.00000000E+00  2.00000000E+00  2.00000000E+00  2.00000000E+00
  2.00000000E+00  2.00000000E+00  2.00000000E+00  2.00000000E+00  2.00000000E+00
  2.00000000E+00  2.00000000E+00  2.00000000E+00  2.00000000E+00  2.00000000E+00
%FLAG DIHEDRAL_PHASE
%FORMAT(5E16.8)
  3.14159265E+00  3.14159265E+00  3.14159265E+00  3.14159265E+00  3.14159265E+00
  3.14159265E+00  3.14159265E+00  3.14159265E+00  3.14159265E+00  0.00000000E+00
  0.00000000E+00  0.00000000E+00  3.14159265E+00  3.14159265E+00  3.14159265E+00
  3.14159265E+00  3.14159265E+00  3.14159265E+00  3.14159265E+00  3.14159265E+00
  3.14159265E+00  3.14159265E+00  3.14159265E+00  3.14159265E+00  3.14159265E+00
  3.14159265E+00  3.14159265E+00  3.14159265E+00  3.14159265E+00  3.14159265E+00
  3.14159265E+00  3.14159265E+00  3.14159265E+00  3.14159265E+00  3.14159265E+00
  3.14159265E+00  3.14159265E+00  3.14159265E+00  3.14159265E+00  3.14159265E+00
  3.14159265E+00  3.14159265E+00  3.14159265E+00  3.14159265E+00  3.14159265E+00
  3.14159265E+00  3.14159265E+00  3.14159265E+00  3.14159265E+00  3.14159265E+00
  3.14159265E+00  3.14159265E+00  3.14159265E+00  3.14159265E+00  3.14159265E+00
  3.14159265E+00  3.14159265E+00  3.14159265E+00  3.14159265E+00  3.14159265E+00
%FLAG SCEE_SCALE_FACTOR
%FORMAT(5E16.8)
  1.00000000E+00  1.00000000E+00  1.00000000E+00  1.20000000E+00  1.20000000E+00
  1.20000000E+00  1.20000000E+00  1.20000000E+00  1.20000000E+00  1.20000000E+00
  1.20000000E+00  1.20000000E+00  1.20000000E+00  1.20000000E+00  1.20000000E+00
  1.20000000E+00  1.20000000E+00  1.20000000E+00  1.20000000E+00  1.20000000E+00
  1.20000000E+00  1.20000000E+00  1.20000000E+00  1.20000000E+00  1.20000000E+00
  1.20000000E+00  1.20000000E+00  1.20000000E+00  1.20000000E+00  1.20000000E+00
  1.20000000E+00  1.20000000E+00  1.20000000E+00  1.20000000E+00  1.20000000E+00
  1.20000000E+00  1.20000000E+00  1.20000000E+00  1.20000000E+00  1.20000000E+00
  1.20000000E+00  1.20000000E+00  1.20000000E+00  1.20000000E+00  1.20000000E+00
  1.20000000E+00  1.20000000E+00  1.20000000E+00  1.20000000E+00  1.20000000E+00
  1.20000000E+00  1.20000000E+00  1.20000000E+00  1.20000000E+00  1.20000000E+00
  1.20000000E+00  1.20000000E+00  1.20000000E+00  1.20000000E+00  1.20000000E+00
%FLAG SCNB_SCALE_FACTOR
%FORMAT(5E16.8)
  1.00000000E+00  1.00000000E+00  1.00000000E+00  2.00000000E+00  2.00000000E+00
  2.00000000E+00  2.00000000E+00  2.00000000E+00  2.00000000E+00  2.00000000E+00
  2.00000000E+00  2.00000000E+00  2.00000000E+00  2.00000000E+00  2.00000000E+00
  2.00000000E+00  2.00000000E+00  2.00000000E+00  2.00000000E+00  2.00000000E+00
  2.00000000E+00  2.00000000E+00  2.00000000E+00  2.00000000E+00  2.00000000E+00
  2.00000000E+00  2.00000000E+00  2.00000000E+00  2.00000000E+00  2.00000000E+00
  2.00000000E+00  2.00000000E+00  2.00000000E+00  2.00000000E+00  2.00000000E+00
  2.00000000E+00  2.00000000E+00  2.00000000E+00  2.00000000E+00  2.00000000E+00
  2.00000000E+00  2.00000000E+00  2.00000000E+00  2.00000000E+00  2.00000000E+00
  2.00000000E+00  2.00000000E+00  2.00000000E+00  2.00000000E+00  2.00000000E+00
  2.00000000E+00  2.00000000E+00  2.00000000E+00  2.00000000E+00  2.00000000E+00
  2.00000000E+00  2.00000000E+00  2.00000000E+00  2.00000000E+00  2.00000000E+00
%FLAG SOLTY
%FORMAT(5E16.8)
  0.00000000E+00
%FLAG LENNARD_JONES_ACOEF
%FORMAT(5E16.8)
  9.44293233E+05  2.12601181E+03  1.39982777E-01  9.95480466E+05  2.56678134E+03
  1.04308023E+06  2.01791425E+04  9.14716912E+00  2.27401052E+04  2.01823541E+02
  8.82619071E+05  2.27577561E+03  9.24822270E+05  2.01619733E+04  8.19971662E+05
  6.06829342E+05  1.02595236E+03  6.47841731E+05  1.12780457E+04  5.74393458E+05
  3.79876399E+05  8.96776989E+04  1.07193646E+02  9.71708117E+04  1.41077189E+03
  8.61541883E+04  5.44261042E+04  7.51607703E+03  6.20665997E+04  5.94667300E+01
  6.78771368E+04  8.79040886E+02  6.01816484E+04  3.69471530E+04  4.98586848E+03
  3.25969625E+03  7.91627154E+04  8.90987508E+01  8.59947003E+04  1.21014911E+03
  7.62451550E+04  4.77908183E+04  6.55825601E+03  4.33325458E+03  5.71629601E+03
  7.44975864E+05  1.40467023E+03  7.91544157E+05  1.45985502E+04  7.01803794E+05
  4.71003287E+05  6.82786631E+04  4.66922514E+04  6.00750218E+04  5.81803229E+05
  0.00000000E+00  0.00000000E+00  0.00000000E+00  0.00000000E+00  0.00000000E+00
  0.00000000E+00  0.00000000E+00  0.00000000E+00  0.00000000E+00  0.00000000E+00
  0.00000000E+00  6.58473870E+04  6.63368273E+01  7.18621074E+04  9.55000044E+02
  6.37148278E+04  3.93690817E+04  5.34045360E+03  3.50301067E+03  4.64559155E+03
  4.96707306E+04  0.00000000E+00  3.76169105E+03  9.84684600E+05  2.53456440E+03
  1.03184851E+06  2.24743442E+04  9.14863930E+05  6.40712560E+05  9.60832554E+04
  6.71095195E+04  8.50294791E+04  7.82881336E+05  0.00000000E+00  7.10513128E+04
  1.02073671E+06  5.18220260E+05  1.06722540E+03  5.48478208E+05  1.06013455E+04
  4.86295154E+05  3.30296908E+05  4.83404799E+04  3.32551339E+04  4.26018274E+04
  4.06752008E+05  0.00000000E+00  3.53289728E+04  5.42502534E+05  2.83662575E+05
  8.11497350E+05  1.94008400E+03  8.53193737E+05  1.78601506E+04  7.56463928E+05
  5.24402060E+05  7.80065389E+04  5.42099106E+04  6.89371259E+04  6.42430744E+05
  0.00000000E+00  5.74592031E+04  8.43969952E+05  4.46121722E+05  6.96551276E+05
  5.99897901E+05  1.11043914E+03  6.37913494E+05  1.16505362E+04  5.65590822E+05
  3.78641356E+05  5.47803235E+04  3.74148715E+04  4.81820985E+04  4.68011805E+05
  0.00000000E+00  3.98127143E+04  6.30925504E+05  3.27367585E+05  5.17507491E+05
  3.76435470E+05  6.89296946E+05  1.54161417E+03  7.26877088E+05  1.46820101E+04
  6.44468276E+05  4.42689091E+05  6.53734853E+04  4.52250254E+04  5.77011015E+04
  5.43595012E+05  0.00000000E+00  4.79847950E+04  7.18991463E+05  3.78207390E+05
  5.92438683E+05  4.37717034E+05  5.03152404E+05  6.43853349E+04  5.78352684E+01
  7.06006146E+04  8.84544347E+02  6.25963552E+04  3.81142515E+04  5.10916075E+03
  3.32626784E+03  4.43530964E+03  4.82692694E+04  0.00000000E+00  3.57795711E+03
  6.97998263E+04  3.44374471E+04  5.63013422E+04  3.86646725E+04  4.69084694E+04
  3.39005767E+03  8.64679274E+04  1.00417924E+02  9.38067954E+04  1.34169202E+03
  8.31715633E+04  5.23449021E+04  7.20681791E+03  4.77162373E+03  6.28513799E+03
  6.57310418E+04  0.00000000E+00  5.11317150E+03  9.27554496E+04  4.65732396E+04
  7.52549148E+04  5.27277400E+04  6.30298721E+04  4.88692384E+03  6.90855956E+03
  2.40872585E+02  2.48828086E-03  3.07630260E+02  4.94997704E-01  2.72753051E+02
  1.02912387E+02  9.22638396E+00  4.62642987E+00  7.46295598E+00  1.47660648E+02
  0.00000000E+00  5.28189878E+00  3.03553352E+02  1.16469347E+02  2.25372434E+02
  1.15813907E+02  1.74176419E+02  4.36660257E+00  8.53132435E+00  1.10360882E-05
%FLAG LENNARD_JONES_BCOEF
%FORMAT(5E16.8)
  8.01323529E+02  2.09604198E+01  9.37598976E-02  7.36907417E+02  2.06278363E+01
  6.75612247E+02  6.45756063E+01  7.57919667E-01  6.13981767E+01  3.56012899E+00
  6.53361429E+02  1.82891803E+01  5.99015525E+02  5.44372326E+01  5.31102864E+02
  6.77220874E+02  1.53505284E+01  6.26720080E+02  5.08951803E+01  5.55666448E+02
  5.64885984E+02  1.36131731E+02  2.59456373E+00  1.26919150E+02  9.41257003E+00
  1.12529845E+02  1.11805549E+02  2.17257828E+01  1.13252061E+02  1.93248820E+00
  1.06076943E+02  7.42992380E+00  9.40505980E+01  9.21192136E+01  1.76949863E+01
  1.43076527E+01  1.26451907E+02  2.33864085E+00  1.18043746E+02  8.61880722E+00
  1.04660679E+02  1.03580945E+02  2.00642027E+01  1.63092814E+01  1.85196588E+01
  7.50714425E+02  1.79702257E+01  6.93079947E+02  5.79323581E+01  6.14502845E+02
  6.29300710E+02  1.25287818E+02  1.03606917E+02  1.16187983E+02  6.99746810E+02
  0.00000000E+00  0.00000000E+00  0.00000000E+00  0.00000000E+00  0.00000000E+00
  0.00000000E+00  0.00000000E+00  0.00000000E+00  0.00000000E+00  0.00000000E+00
  0.00000000E+00  1.15327881E+02  2.01792524E+00  1.07908863E+02  7.65648470E+00
  9.56748258E+01  9.40124296E+01  1.81057616E+01  1.46638650E+01  1.66953734E+01
  1.05648788E+02  0.00000000E+00  1.50233639E+01  7.30206155E+02  2.04226110E+01
  6.69494459E+02  6.08139360E+01  5.93591333E+02  6.20970728E+02  1.25742895E+02
  1.05087646E+02  1.16947855E+02  6.86742760E+02  0.00000000E+00  1.06903901E+02
  6.63431737E+02  4.79881022E+02  1.20051375E+01  4.42179058E+02  3.78372494E+01
  3.92047541E+02  4.03897559E+02  8.07968711E+01  6.70144433E+01  7.49896074E+01
  4.48425641E+02  0.00000000E+00  6.82892701E+01  4.38146883E+02  2.87011518E+02
  6.48597119E+02  1.74825352E+01  5.95658566E+02  5.30440533E+01  5.28126496E+02
  5.49675335E+02  1.10856114E+02  9.24130897E+01  1.03031170E+02  6.08686716E+02
  0.00000000E+00  9.40636541E+01  5.90251928E+02  3.88758656E+02  5.24668528E+02
  6.15165511E+02  1.45902714E+01  5.68167388E+02  4.72594809E+01  5.03752097E+02
  5.15240418E+02  1.02477444E+02  8.46911674E+01  9.50181887E+01  5.73100668E+02
  0.00000000E+00  8.63723599E+01  5.62969425E+02  3.67361018E+02  4.98871431E+02
  4.69350655E+02  5.88797748E+02  1.53501807E+01  5.41546250E+02  4.73716383E+01
  4.80149098E+02  4.97456336E+02  9.99600502E+01  8.31409640E+01  9.28465134E+01
  5.51505564E+02  0.00000000E+00  8.46691831E+01  5.36620538E+02  3.52573684E+02
  4.76608379E+02  4.51916854E+02  4.32634597E+02  1.23751804E+02  2.04464126E+00
  1.16065835E+02  7.99614292E+00  1.02907011E+02  1.00379343E+02  1.92174397E+01
  1.55059847E+01  1.77023375E+01  1.13016701E+02  0.00000000E+00  1.58996004E+01
  1.14981426E+02  7.31636661E+01  1.01040256E+02  9.23664132E+01  9.08431526E+01
  1.67944276E+01  1.34516705E+02  2.52706841E+00  1.25489661E+02  9.23714573E+00
  1.11262422E+02  1.10338858E+02  2.14083478E+01  1.74198525E+01  1.97659043E+01
  1.23703833E+02  0.00000000E+00  1.78280753E+01  1.24325688E+02  7.98066064E+01
  1.09570372E+02  1.01173582E+02  9.87712192E+01  1.89134207E+01  2.10929191E+01
  5.21867651E+00  9.24653616E-03  5.28230309E+00  1.30416027E-01  4.68342836E+00
  3.59619399E+00  5.63047631E-01  3.98705627E-01  5.00648264E-01  4.30971229E+00
  0.00000000E+00  4.21184434E-01  5.22789272E+00  2.93355636E+00  4.40751799E+00
  3.48534600E+00  3.81654050E+00  4.15568027E-01  5.44840215E-01  4.55498033E-04
%FLAG BONDS_INC_HYDROGEN
%FORMAT(10I8)
       0      51       7       0      54       7       0      57       7       9
      60       8      12      63       8      27      66       8      30      69
       8      33      72       8      36      75       8      39      78       8
      45      81       9      48      84       8
%FLAG BONDS_WITHOUT_HYDROGEN
%FORMAT(10I8)
       3       0       1       6       3       2       9       6       3      12
       9       3      15      12       3      18      15       4      21      18
       5      24      18       4      27      24       3      30      27       3
      33      30       3      36      33       3      39      36       3      39
      24       3      42      15       3      45      42       6      48       6
       3      48      42       3
%FLAG ANGLES_INC_HYDROGEN
%FORMAT(10I8)
       3       0      51       2       3       0      54       2       3       0
      57       2       6       9      60       5       6      48      84       5
       9      12      63       5      12       9      60       5      15      12
      63       5      24      27      66       5      24      39      78       5
      27      30      69       5      30      27      66       5      30      33
      72       5      33      30      69       5      33      36      75       5
      36      33      72       5      36      39      78       5      39      36
      75       5      42      45      81      10      42      48      84       5
      51       0      54      11      51       0      57      11      54       0
      57      11
%FLAG ANGLES_WITHOUT_HYDROGEN
%FORMAT(10I8)
       0       3       6       1       3       6       9       3       3       6
      48       3       6       9      12       4       6      48      42       4
       9       6      48       4       9      12      15       4      12      15
      18       6      12      15      42       4      15      18      21       7
      15      18      24       8      15      42      45       9      15      42
      48       4      18      15      42       6      18      24      27       6
      18      24      39       6      21      18      24       7      24      27
      30       4      24      39      36       4      27      24      39       4
      27      30      33       4      30      33      36       4      33      36
      39       4      45      42      48       9
%FLAG DIHEDRALS_INC_HYDROGEN
%FORMAT(10I8)
       3       6       9      60       7       3       6      48      84       9
      51       0       3       6      10      54       0       3       6      11
      57       0       3       6      12       6       9      12      63      14
       9       6      48      84      17      15      12       9      60      23
      15      42      45      81      26      15      42      48      84      27
      18      15      12      63      28      18      24      27      66      32
      18      24      39      78      34      24      27      30      69      40
      24      39      36      75      41      27      24      39      78      43
      27      30      33      72      44      30      33      36      75      46
      33      30      27      66      47      33      36      39      78      48
      36      33      30      69      49      39      24      27      66      50
      39      36      33      72      51      42      15      12      63      52
      45      42      48      84      53      48       6       9      60      54
      48      42      45      81      55      60       9      12      63      56
      66      27      30      69      57      69      30      33      72      58
      72      33      36      75      59      75      36      39      78      60
       6      12      -9     -60       3       9      15     -12     -63       3
      24      30     -27     -66       3      27      33     -30     -69       3
      30      36     -33     -72       3      33      39     -36     -75       3
      24      36     -39     -78       3       6      42     -48     -84       3
%FLAG DIHEDRALS_WITHOUT_HYDROGEN
%FORMAT(10I8)
       0       3       6       9       4       0       3       6      48       5
       3       6       9      12       6       3       6      48      42       8
       6       9      12      15      13       6      48     -42      15       1
       6      48      42      45      15       9       6      48      42      16
       9      12      15      18      18       9      12     -15      42       1
      12       9       6      48      19      12      15      18      21      20
      12      15      18      24      21      12      15      42      45      22
      12      15     -42      48       1      15      18      24      27      24
      15      18      24      39      25      18      15      42      45      29
      18      15      42      48      30      18      24      27      30      31
      18      24      39      36      33      21      18      15      42      35
      21      18      24      27      36      21      18      24      39      37
      24      18      15      42      38      24      27      30      33      39
      24      39     -36      33       1      27      24      39      36      42
      27      30     -33      36       1      30      27      24      39      45
      30      33     -36      39       1       9      48      -6      -3       3
      12      18     -15     -42       3      15      24     -18     -21       2
      18      27     -24     -39       3      15      48     -42     -45       3
%FLAG EXCLUDED_ATOMS_LIST
%FORMAT(10I8)
       2       3       4      17      18      19      20       3       4       5
      15      17      18      19      20      21      29       4       5       6
      15      16      17      18      19      20      21      22      29       5
       6       7      15      17      21      22      29       6       7       8
       9      15      16      17      21      22       7       8       9      10
      14      15      16      17      21      22      28      29       8       9
      10      11      13      14      15      16      17      22      23      27
       9      10      14      15      10      11      12      13      14      15
      23      24      26      27      11      12      13      14      23      24
      25      27      12      13      14      23      24      25      26      13
      14      23      24      25      26      27      14      24      25      26
      27      23      25      26      27      16      17      22      28      29
      17      28      29      21      28      29      19      20      20       0
      22       0      24      25      26      27       0       0       0
%FLAG HBOND_ACOEF
%FORMAT(5E16.8)

%FLAG HBOND_BCOEF
%FORMAT(5E16.8)

%FLAG HBCUT
%FORMAT(5E16.8)

%FLAG AMBER_ATOM_TYPE
%FORMAT(20a4)
C3  O3  C4  C4  C4  C4  C4  O4  C4  C4  C4  C4  C4  C4  C4  O5  C4  H8  H8  H8  
H9  H9  H9  H9  H9  H9  H9  H10 H9  
%FLAG TREE_CHAIN_CLASSIFICATION
%FORMAT(20a4)
BLA BLA BLA BLA BLA BLA BLA BLA BLA BLA BLA BLA BLA BLA BLA BLA BLA BLA BLA BLA 
BLA BLA BLA BLA BLA BLA BLA BLA BLA 
%FLAG JOIN_ARRAY
%FORMAT(10I8)
       0       0       0       0       0       0       0       0       0       0
       0       0       0       0       0       0       0       0       0       0
       0       0       0       0       0       0       0       0       0
%FLAG IROTAT
%FORMAT(10I8)
       0       0       0       0       0       0       0       0       0       0
       0       0       0       0       0       0       0       0       0       0
       0       0       0       0       0       0       0       0       0
%FLAG RADIUS_SET
%FORMAT(1a80)
H(N)-modified Bondi radii (mbondi2)                                             
%FLAG RADII
%FORMAT(5E16.8)
  1.70000000E+00  1.50000000E+00  1.70000000E+00  1.70000000E+00  1.70000000E+00
  1.70000000E+00  1.70000000E+00  1.50000000E+00  1.70000000E+00  1.70000000E+00
  1.70000000E+00  1.70000000E+00  1.70000000E+00  1.70000000E+00  1.70000000E+00
  1.50000000E+00  1.70000000E+00  1.20000000E+00  1.20000000E+00  1.20000000E+00
  1.20000000E+00  1.20000000E+00  1.20000000E+00  1.20000000E+00  1.20000000E+00
  1.20000000E+00  1.20000000E+00  1.20000000E+00  1.20000000E+00
%FLAG SCREEN
%FORMAT(5E16.8)
  7.20000000E-01  8.50000000E-01  7.20000000E-01  7.20000000E-01  7.20000000E-01
  7.20000000E-01  7.20000000E-01  8.50000000E-01  7.20000000E-01  7.20000000E-01
  7.20000000E-01  7.20000000E-01  7.20000000E-01  7.20000000E-01  7.20000000E-01
  8.50000000E-01  7.20000000E-01  8.50000000E-01  8.50000000E-01  8.50000000E-01
  8.50000000E-01  8.50000000E-01  8.50000000E-01  8.50000000E-01  8.50000000E-01
  8.50000000E-01  8.50000000E-01  8.50000000E-01  8.50000000E-01
%FLAG IPOL
%FORMAT(1I8)
       0
