
  542  0.0000000e+00
  17.5810000   8.0870000 -11.6600000  17.8530000   8.7860000 -12.3370000
  16.7540000   8.3570000 -11.1450000  17.6040000   7.1860000 -12.1170000
  18.7290000   7.9610000 -10.6890000  19.5090000   7.4110000 -11.2160000
  18.3280000   7.0400000  -9.5270000  17.5020000   6.1890000  -9.8370000
  19.4030000   9.2540000 -10.2390000  20.3960000   9.2030000  -9.7910000
  18.7230000   9.6560000  -9.4890000  19.5730000  10.2030000 -11.4090000
  20.2100000   9.9120000 -12.2440000  18.6190000  10.3610000 -11.9120000
  20.0730000  11.5330000 -11.0010000  20.2240000  12.0760000 -11.9340000
  21.0980000  11.5010000 -10.6320000  19.1280000  12.2950000 -10.2330000
  18.3100000  11.8650000  -9.8260000  19.3190000  13.4680000  -9.7770000
  20.2280000  14.3150000 -10.2150000  20.7610000  14.1080000 -11.0470000
  20.2510000  15.2830000  -9.9260000  18.4200000  13.9420000  -8.9420000
  17.9460000  13.1660000  -8.5010000  18.2460000  14.8340000  -8.5030000
  18.7220000   7.1680000  -8.2850000  19.4780000   7.7810000  -8.0130000
  18.1020000   6.3720000  -7.1950000  18.0590000   5.3100000  -7.4390000
  16.5940000   6.6410000  -6.9240000  15.8440000   5.7830000  -6.5340000
  18.9080000   6.4660000  -5.9040000  19.8970000   6.1080000  -6.1910000
  18.9160000   7.5410000  -5.7220000  18.3860000   5.7290000  -4.6740000
  17.3800000   6.1040000  -4.4880000  19.1690000   6.1600000  -3.4690000
  19.2650000   7.2460000  -3.4700000  20.1830000   5.7790000  -3.5920000
  18.7310000   5.7110000  -2.5780000  18.3350000   4.1580000  -4.6520000
  17.9300000   3.9210000  -5.6360000  17.8120000   3.7950000  -3.7680000
  19.3730000   3.8260000  -4.6360000  16.2320000   7.8500000  -7.2370000
  16.8300000   8.4190000  -7.8190000  14.8940000   8.3410000  -6.9630000
  14.5790000   8.0750000  -5.9540000  13.8980000   7.8140000  -7.9790000
  12.7090000   7.6690000  -7.6680000  14.9190000   9.8730000  -6.7190000
  15.8200000  10.0780000  -6.1410000  14.0980000  10.1160000  -6.0440000
  14.8650000  10.7010000  -8.0610000  14.5840000  11.7220000  -7.8030000
  14.0100000  10.2760000  -8.5870000  16.2250000  10.4970000  -8.8790000
  16.2070000   9.4660000  -9.5440000  17.1540000  11.2940000  -8.7010000
  14.3490000   7.5580000  -9.2220000  15.2920000   7.8200000  -9.4680000
  13.6270000   6.8850000 -10.2510000  12.6890000   7.3810000 -10.5040000
  14.2440000   6.7590000 -11.1400000  13.1430000   5.5140000  -9.6840000
  12.3470000   4.8380000 -10.3210000  13.7120000   4.9970000  -8.5010000
  14.5210000   5.5030000  -8.1700000  13.6220000   3.5850000  -8.0280000
  12.7420000   3.1760000  -8.5250000  13.3330000   3.4850000  -6.5160000
  12.5400000   2.6550000  -6.0900000  14.6600000   2.5160000  -8.5650000
  14.7300000   2.6560000  -9.6440000  14.0490000   1.1150000  -8.5070000
  13.1140000   1.1370000  -9.0660000  13.6680000   0.9180000  -7.5050000
  16.0240000   2.7040000  -7.9200000  16.3900000   3.7300000  -7.9490000
  16.8410000   2.1370000  -8.3670000  16.0570000   2.5390000  -6.8430000
  14.9010000  -0.0060000  -9.1620000  15.8780000  -0.0790000  -8.6830000
  14.8350000   0.1530000 -10.2380000  14.2540000  -0.8510000  -8.9290000
  13.8660000   4.3510000  -5.5750000  14.6590000   4.9150000  -5.8470000
  13.5330000   4.2420000  -4.1490000  13.6720000   3.1840000  -3.9280000
  12.1260000   4.6960000  -3.7830000  11.4480000   4.2620000  -2.8400000
  14.5970000   5.1700000  -3.4430000  15.4940000   4.7840000  -3.9260000
  14.5870000   6.2380000  -3.6580000  14.7850000   4.9580000  -1.9230000
  13.9860000   5.4880000  -1.4050000  14.7340000   3.4920000  -1.5140000
  15.3170000   2.8490000  -2.1730000  15.2730000   3.3680000  -0.5750000
  13.7280000   3.0730000  -1.4870000  16.1390000   5.4540000  -1.5440000
  16.8980000   4.7220000  -1.8190000  16.3630000   6.3370000  -2.1420000
  16.2630000   5.5590000  -0.4660000  11.5730000   5.6760000  -4.5800000
  12.1240000   6.2200000  -5.2280000  10.1480000   6.0580000  -4.5960000
   9.9580000   6.1390000  -3.5260000   9.1200000   5.0010000  -5.0350000
   8.4090000   4.4490000  -4.2550000   9.9710000   7.5050000  -5.2570000
  10.7960000   8.1620000  -4.9840000   9.9470000   7.3370000  -6.3330000
   8.7190000   8.2900000  -4.9250000   8.2770000   8.2760000  -3.7460000
   8.1820000   8.9460000  -5.8870000   9.1620000   4.5200000  -6.2640000
   9.8080000   4.9520000  -6.9110000   8.3140000   3.3710000  -6.7930000
   7.2790000   3.7030000  -6.7260000   8.4240000   2.0550000  -5.9810000
   7.4420000   1.3530000  -5.8890000   8.4860000   3.0770000  -8.2580000
   7.7830000   2.3410000  -8.6490000   9.3550000   2.4510000  -8.4630000
   8.4520000   4.3100000  -9.1300000   7.6840000   4.3570000 -10.1430000
   9.4090000   5.1380000  -8.9670000   9.6320000   1.6310000  -5.5370000
  10.4120000   2.2460000  -5.7160000   9.8300000   0.4360000  -4.7120000
   9.5170000  -0.5170000  -5.1380000   9.0230000   0.5100000  -3.3930000
   8.7430000  -0.4810000  -2.7280000  11.3060000   0.1590000  -4.4330000
  11.4720000  -0.7710000  -3.8890000  11.9490000  -0.0090000  -5.2980000
  11.9080000   1.2290000  -3.7070000  12.2340000   1.8040000  -4.4030000
   8.8100000   1.7400000  -2.8750000   9.2400000   2.4580000  -3.4400000
   8.0000000   2.1020000  -1.6700000   7.9620000   1.2870000  -0.9470000
   6.5520000   2.1520000  -2.0080000   5.6290000   1.6940000  -1.2290000
   8.5260000   3.3800000  -0.9300000   9.5500000   3.5480000  -1.2630000
   8.6270000   2.9890000   0.4450000   9.5560000   2.7600000   0.5280000
   7.8240000   4.6950000  -1.0070000   7.9810000   5.2080000  -1.9560000
   8.2700000   5.3600000  -0.2680000   6.7610000   4.5340000  -0.8270000
   6.2170000   2.6480000  -3.1920000   6.9450000   3.1230000  -3.7050000
   4.7870000   2.6730000  -3.6280000   4.2670000   3.0970000  -2.7690000
   4.1670000   1.2990000  -3.8590000   3.0020000   1.0570000  -3.5050000
   4.6910000   3.6120000  -4.8110000   5.3970000   4.4220000  -4.6310000
   4.9780000   3.0420000  -5.6940000   3.3480000   4.2080000  -5.1290000
   2.8290000   5.2600000  -4.4020000   3.3900000   5.4910000  -3.5080000
   2.7760000   3.7770000  -6.3300000   3.2160000   3.0460000  -6.9910000
   1.8280000   6.0600000  -4.9040000   1.3850000   6.8420000  -4.3050000
   1.6630000   4.5350000  -6.8480000   1.1900000   4.3950000  -7.8080000
   1.1750000   5.6270000  -6.1220000   0.0690000   6.3040000  -6.4230000
   0.2010000   7.2520000  -6.4950000   4.9800000   0.3710000  -4.3470000
   5.9240000   0.6430000  -4.5780000   4.6440000  -1.0360000  -4.3840000
   3.7330000  -1.1990000  -4.9610000   4.2120000  -1.5350000  -2.9500000
   3.2470000  -2.2960000  -2.8120000   5.8490000  -1.7980000  -4.9830000
   6.6010000  -1.7120000  -4.1990000   6.0440000  -1.3640000  -5.9640000
   5.8330000  -3.3280000  -5.1640000   5.1530000  -3.6630000  -4.3820000
   6.8140000  -3.6590000  -4.8240000   5.4600000  -4.0030000  -6.4970000
   6.2170000  -3.9420000  -7.2790000   4.4960000  -3.7170000  -6.9180000
   5.4680000  -5.4720000  -6.1970000   4.8690000  -5.7560000  -5.3320000
   4.9230000  -5.9820000  -6.9910000   6.7470000  -6.0440000  -5.9060000
   6.6450000  -6.9030000  -5.3850000   7.3520000  -5.5100000  -5.2980000
   7.2790000  -6.2320000  -6.7440000   4.8480000  -1.0620000  -1.8770000
   5.5740000  -0.4090000  -2.1350000   4.6550000  -1.4550000  -0.4840000
   4.4890000  -2.5240000  -0.6160000   3.4330000  -0.8680000   0.1960000
   2.5770000  -1.6020000   0.6690000   5.9420000  -1.2470000   0.3190000
   5.7990000  -1.6950000   1.3020000   6.7920000  -1.7220000  -0.1700000
   6.1450000  -0.1760000   0.3240000   3.1740000   0.4740000   0.0690000
   3.9510000   1.0230000  -0.2720000   1.9390000   1.2690000   0.3940000
   1.8130000   1.3080000   1.4760000   0.6020000   0.6780000  -0.2320000
  -0.2750000   0.2810000   0.5160000   2.1200000   2.7150000  -0.0110000
   2.6590000   2.7230000  -0.9590000   3.1390000   3.3960000   0.9660000
   2.7450000   3.5540000   1.9700000   3.9570000   2.6880000   1.0980000
   0.9400000   3.6520000  -0.3090000   0.5360000   4.2500000   0.5070000
   1.2400000   4.3930000  -1.0500000   0.0030000   3.2050000  -0.6400000
   3.7410000   4.7330000   0.4420000   3.4410000   5.5830000   1.0550000
   4.7970000   4.7800000   0.7050000   3.6700000   4.8300000  -0.6410000
   0.5980000   0.5270000  -1.5750000   1.4150000   0.8010000  -2.1010000
  -0.6330000   0.0870000  -2.3830000  -1.4160000   0.8290000  -2.2210000
  -1.1800000  -1.2650000  -1.9080000  -2.3900000  -1.5730000  -2.0110000
  -0.2290000  -0.0790000  -3.8600000   0.2350000   0.8340000  -4.2330000
  -1.1170000  -0.4470000  -4.3750000   0.8070000  -1.0100000  -3.8930000
   1.6260000  -0.5210000  -3.7900000  -0.2530000  -2.0870000  -1.4540000
   0.6940000  -1.7380000  -1.4230000  -0.4830000  -3.4850000  -1.0640000
  -1.1940000  -3.9420000  -1.7520000  -0.9240000  -3.6130000   0.3930000
  -1.6570000  -4.5260000   0.6590000   0.7350000  -4.3540000  -1.3900000
   0.4410000  -5.4020000  -1.3350000   1.0400000  -4.1490000  -2.4160000
   1.8410000  -4.1850000  -0.5300000   2.0010000  -3.2390000  -0.5120000
  -0.4820000  -2.7050000   1.2530000   0.0740000  -1.9090000   0.9770000
  -1.0690000  -2.7080000   2.6200000  -1.1300000  -3.7420000   2.9590000
  -2.4600000  -2.1660000   2.6570000  -3.3570000  -2.8520000   3.2390000
  -0.2630000  -1.8140000   3.5450000   0.0760000  -0.8690000   3.1220000
  -0.8150000  -1.6630000   4.4730000   0.8580000  -2.6750000   4.0620000
   0.5570000  -3.8710000   4.8000000  -0.4670000  -4.1770000   4.9530000
   2.1420000  -2.2840000   3.7930000   2.3570000  -1.3440000   3.3060000
   1.6090000  -4.6300000   5.2840000   1.3820000  -5.5700000   5.7660000
   3.2090000  -3.1330000   4.1590000   4.2150000  -2.8210000   3.9190000
   2.9360000  -4.2860000   4.9370000   3.8010000  -4.8830000   5.1820000
  -2.6870000  -1.1590000   1.8910000  -1.9430000  -0.7720000   1.3280000
  -4.0370000  -0.7260000   1.4470000  -4.5660000  -0.3870000   2.3380000
  -4.9200000  -1.7930000   0.8470000  -6.0700000  -1.7550000   1.1950000
  -3.8090000   0.4310000   0.5470000  -4.5690000   0.4700000  -0.2340000
  -2.7990000   0.3370000   0.1480000  -3.9260000   1.6720000   1.4190000
  -2.9860000   2.5970000   1.6560000  -1.9850000   2.4890000   1.2640000
  -5.1320000   2.1900000   2.1600000  -3.4820000   3.6590000   2.3990000
  -2.9190000   4.4670000   2.6220000  -4.7230000   3.3460000   2.8940000
  -6.3620000   1.6910000   2.4890000  -6.6070000   0.7560000   2.0060000
  -5.5720000   4.0440000   3.7380000  -5.2950000   4.9980000   4.1640000
  -7.1640000   2.2490000   3.4730000  -8.1480000   1.8210000   3.5960000
  -6.8100000   3.4460000   4.0910000  -7.3960000   3.9270000   4.8610000
  -4.4300000  -2.6920000  -0.0240000  -3.5300000  -2.4780000  -0.4280000
  -5.3350000  -3.6320000  -0.7080000  -6.1380000  -3.0760000  -1.1910000
  -5.9100000  -4.7770000   0.2900000  -7.0840000  -4.9940000   0.3190000
  -4.5490000  -4.1410000  -1.9370000  -3.5370000  -4.3880000  -1.6160000
  -4.4250000  -3.3360000  -2.6620000  -5.1760000  -5.2870000  -2.8930000
  -4.6620000  -5.2490000  -3.8540000  -6.2340000  -5.0770000  -3.0490000
  -4.9670000  -6.7270000  -2.4370000  -5.5060000  -7.6060000  -3.2030000
  -4.4160000  -7.0900000  -1.3780000  -5.1150000  -5.3270000   1.2360000
  -4.1390000  -5.0680000   1.2490000  -5.5040000  -6.0970000   2.3440000
  -6.1670000  -6.8380000   1.8960000  -6.4420000  -5.3780000   3.4230000
  -7.4010000  -5.8500000   4.0360000  -4.3110000  -6.7550000   2.9960000
  -3.7210000  -7.2500000   2.2240000  -3.6830000  -5.9440000   3.3650000
  -4.7560000  -7.7310000   4.0970000  -4.8800000  -7.1160000   4.9890000
  -5.7690000  -8.0570000   3.8620000  -3.8230000  -8.9110000   4.2630000
  -3.8410000  -9.4650000   3.3240000  -2.7850000  -8.5820000   4.3160000
  -4.0340000  -9.9240000   5.4400000  -3.3640000 -10.7630000   5.2510000
  -5.0430000 -10.3350000   5.4760000  -3.6720000  -9.3340000   6.7830000
  -4.2290000  -9.7560000   7.5110000  -2.6900000  -9.5260000   6.9190000
  -3.7400000  -8.3290000   6.8650000  -5.9890000  -4.1780000   3.8800000
  -5.1920000  -3.7550000   3.4260000  -6.8690000  -3.2030000   4.6140000
  -7.0830000  -3.4540000   5.6530000  -8.2180000  -3.1410000   3.9040000
  -9.2490000  -3.0670000   4.5580000  -6.2010000  -1.8830000   4.7160000
  -5.1590000  -1.8390000   5.0360000  -6.1580000  -1.4150000   3.7320000
  -7.0140000  -0.9410000   5.5790000  -7.8560000  -0.6220000   4.9650000
  -7.3300000  -1.5810000   6.4030000  -6.3150000   0.3440000   6.1010000
  -6.8780000   1.2720000   5.9950000  -5.4090000   0.5290000   5.5240000
  -5.8000000   0.4690000   7.4790000  -5.6080000  -0.4080000   7.9430000
  -5.0290000   1.4980000   7.9810000  -4.9020000   2.7030000   7.5710000
  -5.3070000   3.0690000   6.7210000  -4.3830000   3.4680000   7.9770000
  -4.3440000   1.2660000   8.9830000  -4.2490000   0.3370000   9.3690000
  -4.0540000   2.0050000   9.6080000  -8.3320000  -2.8900000   2.5850000
  -7.4560000  -2.8930000   2.0820000  -9.6840000  -2.7850000   1.9180000
 -10.2920000  -2.1010000   2.5110000 -10.4150000  -4.1170000   2.0780000
 -11.6270000  -4.0590000   2.0750000  -9.6410000  -2.2470000   0.4550000
  -8.7500000  -2.5760000  -0.0790000  -9.5330000  -0.7150000   0.5300000
  -8.6340000  -0.3370000   1.0150000 -10.4390000  -0.3720000   1.0310000
 -10.8250000  -2.8100000  -0.3900000 -10.7310000  -2.3720000  -1.3830000
 -11.7920000  -2.4540000  -0.0330000 -10.7500000  -3.8790000  -0.5930000
  -9.5550000   0.0050000  -0.8080000  -8.5940000  -0.3220000  -1.2050000
  -9.7230000   1.0690000  -0.6460000 -10.4790000  -0.3250000  -1.2840000
  -9.7470000  -5.2730000   2.1630000  -8.7620000  -5.2700000   1.9390000
 -10.3250000  -6.5370000   2.2110000 -11.0750000  -6.5640000   1.4200000
 -10.9650000  -6.8260000   3.5330000 -11.9460000  -7.5650000   3.6460000
  -9.2340000  -7.5330000   1.8510000  -8.3410000  -7.2600000   2.4120000
  -9.5910000  -8.4980000   2.2130000  -9.0530000  -7.5020000   0.3100000
  -9.9420000  -8.0080000  -0.0670000  -8.9360000  -6.4730000  -0.0310000
  -7.8850000  -8.3610000  -0.0050000  -7.8890000  -9.2390000   0.6400000
  -6.9470000  -7.8290000   0.1570000  -7.7820000  -8.9090000  -1.4290000
  -8.7180000  -9.3640000  -1.7510000  -7.6940000  -8.1080000  -2.1630000
  -6.6740000  -9.8230000  -1.6160000  -5.8280000  -9.6430000  -1.0940000
  -6.9990000 -10.7790000  -1.5830000  -6.3820000  -9.6980000  -2.5750000
 -10.4940000  -6.1570000   4.5480000  -9.7130000  -5.5400000   4.3720000
 -10.9830000  -6.2920000   5.9060000 -11.4640000  -7.2470000   6.1140000
 -11.9900000  -5.1890000   6.3190000 -13.0070000  -5.4790000   6.9520000
  -9.8260000  -6.3490000   6.9350000 -10.2190000  -6.4820000   7.9430000
  -9.3380000  -5.3760000   7.0060000  -8.8980000  -7.3970000   6.5630000
  -9.0660000  -8.1650000   7.1150000 -11.7630000  -3.9240000   5.8440000
 -10.8650000  -3.7770000   5.4060000 -12.5760000  -2.7760000   6.2350000
 -12.4190000  -2.8380000   7.3120000 -14.0360000  -2.9770000   5.8320000
 -14.8930000  -2.8680000   6.7470000 -11.9630000  -1.4840000   5.7040000
 -10.8940000  -1.3590000   5.8760000 -12.1170000  -1.5190000   4.6260000
 -12.6090000  -0.1710000   6.2350000 -12.6910000  -0.0540000   7.4610000
 -12.6930000   0.8760000   5.5520000 -14.2930000  -3.3560000   4.5910000
 -13.4940000  -3.5310000   3.9970000 -15.6560000  -3.5290000   4.1120000
 -16.2420000  -2.8150000   4.6900000 -16.3220000  -4.8490000   4.4900000
 -17.5500000  -5.1080000   4.4060000 -15.7330000  -3.1520000   2.6000000
 -16.7940000  -3.0680000   2.3680000 -15.1000000  -4.2970000   1.7220000
 -14.1110000  -4.4800000   2.1410000 -15.8210000  -5.1080000   1.8180000
 -14.9990000  -1.7660000   2.3530000 -14.0390000  -1.8190000   2.8670000
 -15.6420000  -1.0540000   2.8710000 -14.9550000  -1.4520000   1.3100000
 -15.0440000  -3.9320000   0.2080000 -14.1350000  -3.4130000  -0.0980000
 -15.9850000  -3.4940000  -0.1240000 -14.8360000  -4.8190000  -0.3900000
 -15.4730000  -5.8050000   4.8360000 -14.4760000  -5.6480000   4.8010000
 -15.9810000  -6.9640000   5.5480000 -16.8400000  -7.3690000   5.0140000
 -16.4410000  -6.6290000   6.9120000 -17.6500000  -6.4350000   7.2680000
 -14.8890000  -8.0220000   5.5690000 -14.0180000  -7.5600000   6.0320000
 -14.6180000  -8.2610000   4.5400000 -15.2600000  -9.3900000   6.1860000
 -15.9590000  -9.4230000   7.0220000 -15.8040000  -9.8490000   5.3600000
 -14.2260000 -10.3340000   6.6720000 -13.9310000 -10.0530000   7.6830000
 -14.6260000 -11.3470000   6.6590000 -12.9370000 -10.5340000   5.9030000
 -12.7330000  -9.7450000   5.1800000 -13.0480000 -11.4890000   5.3890000
 -11.8380000 -10.5330000   6.9040000 -11.9410000  -9.6840000   7.4410000
 -11.8900000 -11.3520000   7.4930000 -10.9550000 -10.4300000   6.4240000
 -15.5160000  -6.3140000   7.8000000 -14.5570000  -6.3760000   7.4900000
 -15.7080000  -6.1900000   9.2450000 -16.2360000  -7.0870000   9.5680000
 -16.5780000  -5.0980000   9.6500000 -17.2610000  -5.2690000  10.6820000
 -14.3270000  -6.3210000  10.0320000 -13.7360000  -5.4780000   9.6730000
 -14.6200000  -6.2340000  11.0780000 -13.6490000  -7.6590000   9.8380000
 -13.8930000  -8.4160000  10.5840000 -14.0280000  -8.0950000   8.9130000
 -12.1670000  -7.5950000   9.6750000 -11.4850000  -6.9170000  10.4820000
 -11.7380000  -8.2840000   8.7050000 -16.4040000  -4.0070000   8.9640000
 -15.9790000  -4.1290000   8.0560000 -17.1320000  -2.7710000   9.3390000
 -16.8540000  -2.0060000   8.6140000 -16.8440000  -2.4290000  10.3330000
 -18.6510000  -2.8070000   9.0760000 -19.4340000  -1.8970000   9.4550000
 -19.1270000  -3.7840000   8.3040000 -18.4690000  -4.4040000   7.8530000
 -20.4810000  -3.9300000   7.8300000 -21.1140000  -3.1270000   8.2080000
 -21.1150000  -5.2610000   8.3770000 -22.2140000  -5.0120000   8.8960000
 -20.5270000  -3.9690000   6.2840000 -19.8870000  -4.7450000   5.8650000
 -21.5690000  -4.1010000   5.9920000 -20.0790000  -2.6230000   5.5690000
 -19.6530000  -1.6690000   6.3010000 -20.2020000  -2.6140000   4.3470000
 -20.4220000  -6.3790000   8.4040000 -19.4270000  -6.4780000   8.2620000
 -21.1400000  -7.7190000   8.8080000 -22.1910000  -7.7160000   8.5210000
 -21.2440000  -8.1530000  10.3110000 -22.4640000  -8.1680000  10.7340000
 -20.2430000  -8.7700000   8.0160000 -20.6350000  -9.7370000   8.3290000
 -19.2280000  -8.6640000   8.3980000 -20.2350000  -8.8920000   6.4870000
 -21.4540000  -8.8040000   5.7660000 -22.3810000  -8.5420000   6.2540000
 -19.0270000  -9.2650000   5.8540000 -18.1260000  -9.4530000   6.4210000
 -21.4210000  -9.3020000   4.4640000 -22.3800000  -9.4160000   3.9800000
 -19.0580000  -9.7310000   4.5500000 -18.2020000 -10.2290000   4.1190000
 -20.2560000  -9.6410000   3.8280000 -20.3770000  -9.9790000   2.8090000
 -20.2960000  -8.8210000  10.8110000   2.5260000   7.7800000   0.4560000
   2.1860000   7.3440000  -0.8390000   1.0170000   6.6320000  -0.9850000
   0.0800000   6.5660000  -0.0100000  -1.0700000   5.8370000  -0.2110000
  -1.3200000   5.1850000  -1.3730000  -2.5560000   4.4040000  -1.5870000
  -2.5850000   3.5820000  -2.5080000  -3.7610000   4.5820000  -0.7550000
  -4.6400000   3.5100000  -0.6040000  -5.7790000   3.6640000   0.1890000
  -6.0370000   4.8930000   0.8090000  -5.1630000   5.9320000   0.6380000
  -4.0440000   5.7710000  -0.1520000  -0.3420000   5.2390000  -2.4100000
  -0.5620000   4.5840000  -3.5520000   0.8210000   5.9840000  -2.1960000
   2.0280052   7.1413950   1.2004359   3.6160537   7.7172970   0.5896086
   2.1995488   8.8219109   0.5896086   0.2376252   7.0944343   0.9417938
  -1.8119103   5.7814885   0.5992392  -4.4379586   2.5517930  -1.1050175
  -6.4725310   2.8213213   0.3265040  -6.9361898   5.0222519   1.4292836
  -5.3531423   6.8966854   1.1311815  -3.3635817   6.6227316  -0.2989159
   0.1104345   4.6150875  -4.2779238   1.5810599   6.0565873  -2.9878586
