
  474  0.0000000e+00
 -12.5390000  -2.6520000  10.9370000 -13.2290000  -3.1410000  10.3840000
 -12.2090000  -1.8610000  10.4020000 -12.9540000  -2.2730000  11.7770000
 -11.3830000  -3.5540000  11.1980000 -10.5860000  -3.0810000  11.7730000
 -11.6400000  -4.3870000  11.8520000 -10.8380000  -4.1600000   9.9430000
 -10.1260000  -3.3780000   9.2670000 -10.8930000  -5.4920000   9.7000000
 -11.3660000  -6.0370000  10.4070000 -10.1060000  -6.1770000   8.6750000
  -9.0550000  -6.3320000   8.9210000 -10.2260000  -5.4610000   7.3130000
  -9.2210000  -5.0910000   6.6660000 -10.5420000  -7.6530000   8.5330000
  -9.6850000  -8.0940000   8.0250000 -11.4920000  -7.7160000   8.0020000
 -10.7610000  -8.1360000   9.4850000 -11.3930000  -5.2880000   6.7470000
 -12.1820000  -5.4780000   7.3490000 -11.6110000  -4.7800000   5.3870000
 -11.0940000  -5.4820000   4.7320000 -10.9560000  -3.4140000   5.1590000
 -10.2660000  -3.2590000   4.1100000 -13.1090000  -4.8280000   4.9820000
 -13.4000000  -5.8720000   4.8630000 -13.7330000  -4.3630000   5.7450000
 -13.0450000  -4.2870000   4.0380000 -11.2810000  -2.4900000   6.0630000
 -11.9120000  -2.6940000   6.8250000 -10.7790000  -1.1160000   6.1870000
 -11.0300000  -0.6200000   5.2490000  -9.2580000  -1.2440000   6.2150000
  -8.5740000  -0.5280000   5.5420000 -11.4470000  -0.2150000   7.2450000
 -11.1820000   0.8420000   7.2280000 -11.0590000  -0.5720000   8.2000000
 -12.5350000  -0.2760000   7.2840000  -8.7940000  -2.1580000   7.1150000
  -9.4400000  -2.7250000   7.6440000  -7.3540000  -2.3890000   7.3260000
  -7.0620000  -1.3500000   7.4840000  -6.5980000  -2.8230000   6.0640000
  -5.7290000  -2.0830000   5.6310000  -7.1270000  -3.2620000   8.5910000
  -7.7120000  -2.8300000   9.4030000  -6.0760000  -3.2710000   8.8810000
  -7.4390000  -4.2920000   8.4210000  -7.1280000  -3.8180000   5.2800000
  -7.9350000  -4.3210000   5.6210000  -6.5240000  -4.0550000   4.0360000
  -5.4960000  -4.2670000   4.3290000  -6.5330000  -3.0130000   2.9330000
  -5.5640000  -2.7950000   2.2620000  -7.0310000  -5.4430000   3.4360000
  -8.0750000  -5.2710000   3.1740000  -6.5420000  -5.5980000   2.4740000
  -6.9170000  -6.6210000   4.3790000  -7.5180000  -6.4190000   5.2660000
  -7.3400000  -7.5220000   3.9330000  -5.5030000  -6.9020000   4.8240000
  -4.9120000  -6.8320000   3.9110000  -5.1670000  -6.1260000   5.5110000
  -5.2760000  -8.2090000   5.3960000  -5.1880000  -8.1440000   6.4000000
  -5.0820000  -9.3660000   4.8330000  -5.0860000  -9.6670000   3.5650000
  -5.0610000 -10.6530000   3.3510000  -5.0170000  -8.9000000   2.9110000
  -4.8440000 -10.3700000   5.5160000  -4.6760000 -10.1770000   6.4930000
  -4.7010000 -11.2670000   5.0750000  -7.6660000  -2.3410000   2.8550000
  -8.3690000  -2.6180000   3.5250000  -7.9960000  -1.2740000   1.9930000
  -7.7650000  -1.5790000   0.9720000  -7.2370000  -0.0120000   2.2480000
  -6.7830000   0.6240000   1.2770000  -9.5020000  -1.1350000   2.0060000
  -9.7530000  -0.1970000   1.5120000 -10.0650000  -1.9350000   1.5250000
  -9.8540000  -1.0870000   3.0370000  -6.9950000   0.4130000   3.4910000
  -7.3840000  -0.0670000   4.2900000  -6.3220000   1.6870000   3.8160000
  -6.6630000   2.4270000   3.0930000  -4.8110000   1.3760000   3.6180000
  -4.1810000   2.1700000   2.9010000  -6.7740000   2.0430000   5.2950000
  -6.6820000   1.1580000   5.9240000  -6.0340000   2.7500000   5.6720000
  -8.1630000   2.6520000   5.4090000  -8.9240000   1.9170000   5.1480000
  -8.4830000   3.0730000   6.8650000  -7.5860000   3.5480000   7.2620000
  -9.3560000   3.7250000   6.8870000  -8.5860000   2.1490000   7.4340000
  -8.2170000   3.9010000   4.5080000  -9.1990000   4.3580000   4.6290000
  -8.2310000   3.6450000   3.4490000  -7.5730000   4.6790000   4.9190000
  -4.2800000   0.2450000   4.0310000  -4.8010000  -0.4650000   4.5270000
  -2.8720000   0.0500000   3.7760000  -2.3790000   0.9480000   4.1500000
  -2.6320000  -0.0750000   2.2150000  -1.5820000   0.3380000   1.6610000
  -2.3640000  -1.1130000   4.6540000  -2.7990000  -0.9580000   5.6410000
  -1.2920000  -0.9520000   4.7700000  -2.6580000  -2.0670000   4.2170000
  -3.5240000  -0.6880000   1.4530000  -4.2920000  -1.1460000   1.9220000
  -3.3900000  -0.7620000  -0.0130000  -2.3780000  -1.0460000  -0.3040000
  -3.4910000   0.6400000  -0.6930000  -2.6380000   0.9350000  -1.5980000
  -4.2990000  -1.7600000  -0.6830000  -5.3180000  -1.6390000  -0.3160000
  -4.4170000  -1.7470000  -2.2570000  -3.4110000  -1.6220000  -2.6570000
  -5.1300000  -0.9730000  -2.5420000  -4.7580000  -2.7190000  -2.6130000
  -3.6650000  -3.1270000  -0.2760000  -2.7220000  -3.2030000  -0.8160000
  -4.3120000  -3.9800000  -0.4810000  -3.5570000  -3.0940000   0.8080000
  -4.3610000   1.5270000  -0.2560000  -4.9690000   1.2380000   0.4970000
  -4.6220000   2.8210000  -0.8780000  -4.5930000   2.7220000  -1.9630000
  -3.4770000   3.7510000  -0.6600000  -2.9190000   4.3240000  -1.5980000
  -6.0100000   3.3170000  -0.6050000  -6.2480000   3.1050000   0.4370000
  -6.2730000   4.7750000  -0.8360000  -7.2710000   4.9260000  -0.4270000
  -6.1900000   5.0900000  -1.8760000  -5.4790000   5.3940000  -0.4180000
  -6.9890000   2.5640000  -1.4520000  -7.9700000   2.5630000  -0.9770000
  -6.9790000   2.7370000  -2.5280000  -6.7110000   1.5210000  -1.3020000
  -2.8630000   3.6430000   0.4700000  -3.1790000   3.0500000   1.2240000
  -1.5900000   4.3410000   0.7600000  -1.6780000   5.3930000   0.4860000
  -0.3880000   3.8570000   0.0540000   0.3890000   4.7190000  -0.4060000
  -1.4570000   4.1110000   2.2510000  -1.4400000   3.0500000   2.4990000
  -0.4200000   4.3990000   2.4250000  -2.3770000   4.9510000   3.1250000
  -3.4230000   4.9800000   2.8210000  -2.4200000   4.4580000   4.5460000
  -3.2160000   5.0820000   4.9540000  -1.4950000   4.6780000   5.0790000
  -2.7800000   3.4300000   4.5910000  -1.8980000   6.4450000   3.1330000
  -0.8350000   6.4260000   3.3750000  -2.2450000   7.0670000   3.9590000
  -2.1500000   6.9800000   2.2170000  -0.1980000   2.5450000  -0.1130000
  -0.9000000   1.8610000   0.1290000   0.9420000   2.1080000  -0.8140000
   1.8590000   2.6080000  -0.5000000   0.7760000   2.4960000  -2.2970000
   1.7330000   2.9870000  -2.9190000   1.1340000   0.5990000  -0.5230000
   0.3430000   0.1070000  -1.0890000   1.0460000   0.3760000   0.5400000
   2.1110000   0.1890000  -0.7790000  -0.4140000   2.3180000  -2.8560000
  -1.1830000   1.9640000  -2.3050000  -0.7970000   2.6960000  -4.1690000
  -0.1150000   2.1010000  -4.7770000  -0.5710000   4.2080000  -4.5060000
  -0.2920000   4.5940000  -5.6350000  -2.2890000   2.3160000  -4.4860000
  -2.4360000   1.2360000  -4.4720000  -3.0050000   2.8850000  -3.8930000
  -2.4420000   2.6070000  -5.5250000  -0.7030000   5.0920000  -3.4770000
  -1.2030000   4.8160000  -2.6440000  -0.4270000   6.4830000  -3.6490000
  -0.8920000   6.7840000  -4.5880000   0.9810000   6.8660000  -3.7100000
   1.3730000   7.5690000  -4.6090000  -1.2580000   7.3780000  -2.7540000
  -1.1000000   8.4470000  -2.8950000  -2.3000000   7.2840000  -3.0560000
  -1.1100000   7.1530000  -1.6970000   1.8790000   6.3650000  -2.7760000
   1.5170000   5.6150000  -2.2040000   3.2560000   6.5140000  -2.9240000
   3.5470000   7.5570000  -2.7940000   3.8530000   5.9570000  -4.2760000
   4.7780000   6.4770000  -4.8510000   3.8390000   5.7750000  -1.7050000
   3.5010000   6.3070000  -0.8160000   4.9230000   5.8780000  -1.7570000
   3.5460000   4.7350000  -1.8490000   3.3160000   4.8400000  -4.7930000
   2.7900000   4.2790000  -4.1380000   3.7580000   4.1310000  -6.0450000
   4.8400000   4.0120000  -5.9890000   3.5390000   5.1570000  -7.1680000
   4.5080000   5.4790000  -7.8660000   2.9710000   2.7520000  -6.1940000
   1.9270000   3.0220000  -6.3470000   3.0830000   2.2230000  -5.2480000
   3.3720000   1.7720000  -7.2800000   3.0670000   2.2300000  -8.2210000
   4.9030000   1.5890000  -7.2950000   5.2400000   1.1180000  -6.3720000
   5.3170000   2.5850000  -7.4540000   5.1140000   0.8640000  -8.0810000
   2.6770000   0.3680000  -7.3370000   2.9410000  -0.2060000  -6.4490000
   1.5940000   0.4880000  -7.3490000   2.9660000  -0.0220000  -8.3130000
   2.3290000   5.7780000  -7.1410000   1.6620000   5.2580000  -6.5890000
   1.7990000   6.7160000  -8.0580000   1.8140000   6.3040000  -9.0670000
   2.5430000   8.0810000  -8.0620000   2.8190000   8.6850000  -9.1340000
   0.3010000   6.8710000  -7.8570000  -0.0680000   7.6110000  -8.5670000
   0.0950000   7.2880000  -6.8710000  -0.0960000   5.8580000  -7.9320000
   2.8240000   8.5830000  -6.8180000   2.4470000   8.1100000  -6.0090000
   3.6760000   9.7430000  -6.6520000   3.4140000  10.4700000  -7.4200000
   5.1940000   9.4290000  -6.8480000   6.0730000  10.3210000  -6.9080000
   3.2230000  10.3280000  -5.3440000   3.4840000  11.3820000  -5.2540000
   3.7990000   9.7720000  -4.6050000   2.1500000  10.2460000  -5.1710000
   5.4290000   8.2200000  -7.2940000   4.8380000   7.4810000  -6.9400000
   6.6970000   7.7400000  -7.8360000   7.1430000   8.5180000  -8.4550000
   6.3600000   6.8870000  -8.4250000   7.8260000   7.4460000  -6.8410000
   8.9880000   7.2630000  -7.1310000   7.3920000   7.5070000  -5.6100000
   6.3900000   7.4160000  -5.5280000   8.2490000   7.3660000  -4.4070000
   9.0720000   8.0770000  -4.4840000   8.8320000   5.9920000  -4.2330000
   9.9270000   5.8330000  -3.6610000   7.5450000   7.8330000  -3.1260000
   8.1540000   7.5610000  -2.2640000   6.5710000   7.3510000  -3.0510000
   7.2540000   9.3560000  -2.9790000   6.7880000   9.7080000  -3.8990000
   6.2880000   9.5910000  -1.7700000   6.9490000   9.4260000  -0.9190000
   5.9900000  10.6280000  -1.9260000   5.3720000   9.0070000  -1.8620000
   8.4950000  10.1110000  -2.6940000   9.0600000  10.2870000  -3.6100000
   8.2640000  11.1230000  -2.3630000   9.1230000   9.6530000  -1.9300000
   8.1340000   5.0240000  -4.7370000   7.2420000   5.2070000  -5.1730000
   8.5030000   3.5730000  -4.6200000   9.5420000   3.5200000  -4.2950000
   8.5190000   2.8610000  -5.9550000   8.0370000   3.3880000  -6.9190000
   7.7020000   2.9330000  -3.4840000   8.1570000   1.9520000  -3.3520000
   6.2130000   2.7250000  -3.8880000   6.2100000   2.1090000  -4.7870000
   5.7660000   3.6800000  -4.1650000   7.7710000   3.8080000  -2.2290000
   7.5190000   3.1420000  -1.4040000   7.0820000   4.6490000  -2.3090000
   8.7650000   4.2490000  -2.1520000   5.3420000   2.1830000  -2.7320000
   5.0600000   3.0100000  -2.0810000   5.9150000   1.4340000  -2.1850000
   4.4440000   1.7760000  -3.1960000   9.0830000   1.6710000  -6.0890000
   9.6940000   1.3540000  -5.3510000   8.8350000   0.8060000  -7.2600000
   8.5500000   1.3160000  -8.1800000   7.6760000  -0.2060000  -7.0130000
   7.3540000  -0.4860000  -5.8670000  10.0760000  -0.0060000  -7.6980000
   9.7060000  -0.5220000  -8.5830000  10.4910000  -1.0410000  -6.7900000
  10.8070000  -0.6420000  -5.9770000  11.2410000   0.8810000  -8.2430000
  11.3670000   1.7300000  -7.5700000  12.1950000   0.3710000  -8.3780000
  10.8260000   1.4010000  -9.1070000   7.0550000  -0.8510000  -8.0450000
   7.5060000  -0.7360000  -8.9410000   6.0010000  -1.9820000  -7.8620000
   5.1180000  -1.4090000  -7.5780000   6.2860000  -3.0840000  -6.8720000
   5.3710000  -3.4690000  -6.1420000   5.7130000  -2.4880000  -9.2830000
   4.8710000  -3.1740000  -9.1990000   6.5450000  -3.0460000  -9.7120000
   5.2720000  -1.6920000  -9.8830000   7.5730000  -3.5480000  -6.8780000
   8.1620000  -3.2140000  -7.6280000   8.0770000  -4.6050000  -6.0780000
   7.3780000  -5.4280000  -6.2280000   8.2310000  -4.2680000  -4.5670000
   8.2960000  -5.1510000  -3.7570000   9.4720000  -5.0570000  -6.6030000
  10.1010000  -5.5020000  -5.8330000  10.0450000  -4.2010000  -6.9600000
   9.3350000  -6.0240000  -7.8400000   9.9530000  -5.7790000  -8.7040000
   8.3260000  -5.8060000  -8.1900000   9.4800000  -7.5130000  -7.6300000
   9.7610000  -8.3180000  -8.5700000   9.2630000  -7.9830000  -6.4980000
   8.2290000  -2.9780000  -4.1360000   8.2040000  -2.2510000  -4.8370000
   8.0120000  -2.5080000  -2.7500000   8.6210000  -3.1490000  -2.1140000
   6.5660000  -2.6160000  -2.3720000   6.2520000  -3.0740000  -1.2790000
   8.4860000  -1.0980000  -2.4370000   7.9510000  -0.5050000  -3.1790000
   8.2210000  -0.7440000  -1.4410000  10.0400000  -0.9130000  -2.6150000
  10.5350000  -1.4900000  -1.8340000  10.2730000  -1.3730000  -3.5760000
  10.4050000   0.5350000  -2.6050000  10.6440000   1.1460000  -3.6900000
  10.4300000   1.1750000  -1.5440000   5.6400000  -2.2280000  -3.3060000
   6.0840000  -1.8390000  -4.1250000   4.2100000  -1.9740000  -2.9580000
   4.0520000  -1.3810000  -2.0570000   3.5570000  -3.3320000  -2.7550000
   2.8640000  -3.4480000  -1.7310000   3.4240000  -1.3150000  -4.0580000
   3.3550000  -1.8510000  -5.0050000   2.4650000  -1.0620000  -3.6070000
   3.8480000  -0.3360000  -4.2820000   3.6930000  -4.1930000  -3.7030000
   4.1440000  -3.7250000  -4.4760000   3.3120000  -5.5720000  -3.7940000
   2.2980000  -5.7090000  -3.4200000   4.1650000  -6.6080000  -2.9820000
   3.7790000  -7.7510000  -2.9830000   3.4130000  -5.9230000  -5.3740000
   4.4530000  -5.8500000  -5.6920000   3.1850000  -6.9780000  -5.5270000
   2.5140000  -5.0470000  -6.3120000   2.9190000  -4.0370000  -6.3770000
   2.3540000  -5.5770000  -7.6610000   3.2900000  -5.4880000  -8.2110000
   1.9710000  -6.5960000  -7.7140000   1.6210000  -4.9830000  -8.2070000
   1.0870000  -5.0180000  -5.7830000   1.1290000  -4.3920000  -4.8920000
   0.2940000  -4.5640000  -6.3760000   0.7680000  -6.0280000  -5.5240000
   5.1750000  -6.1950000  -2.1780000   5.5590000  -5.2970000  -2.4380000
   5.6640000  -6.8940000  -1.0520000   5.4670000  -7.9630000  -1.1420000
   4.8500000  -6.2590000   0.1570000   4.2040000  -6.9600000   0.9710000
   7.2010000  -6.5870000  -0.8210000   7.6630000  -7.3220000  -0.1630000
   7.4180000  -5.5750000  -0.4780000   7.7290000  -6.8070000  -1.7490000
   4.7890000  -4.9140000   0.2970000   5.2390000  -4.3970000  -0.4440000
   4.3990000  -4.3150000   1.5220000   5.1270000  -4.5750000   2.2900000
   2.9330000  -4.7310000   1.7890000   2.6900000  -5.0410000   2.9690000
   4.4230000  -2.8110000   1.2850000   5.3900000  -2.5640000   0.8470000
   4.3380000  -2.2050000   2.1870000   3.6430000  -2.5210000   0.5800000
   2.0570000  -4.6890000   0.8800000   2.3560000  -4.3800000  -0.0340000
   0.6480000  -4.8830000   1.1680000   0.3860000  -4.3140000   2.0600000
   0.2830000  -6.3270000   1.6000000  -0.7370000  -6.6030000   2.2100000
  -0.3370000  -4.3270000   0.1300000  -1.3710000  -4.4310000   0.4580000
  -0.2000000  -5.2650000  -1.1570000   0.8170000  -5.3210000  -1.5440000
  -0.5070000  -6.2800000  -0.9030000  -0.1420000  -2.8410000  -0.1040000
   0.8830000  -2.6780000  -0.4350000  -0.4430000  -2.3590000   0.8270000
  -0.7030000  -2.3880000  -0.9220000  -1.0770000  -4.8660000  -2.3840000
  -1.0830000  -5.7440000  -3.0300000  -2.1470000  -4.7110000  -2.2440000
  -0.6150000  -4.0490000  -2.9370000   1.1300000  -7.3140000   1.2300000
   1.8090000  -7.1360000   0.5040000   1.2470000  -8.6240000   1.8280000
   0.2630000  -9.0900000   1.8850000   1.6470000  -8.5880000   3.3100000
   1.6510000  -9.6550000   3.9060000   2.0860000  -9.6180000   0.9450000
   3.1310000  -9.3430000   0.8070000   1.7020000  -9.5820000  -0.0740000
   2.0140000 -10.6130000   1.3840000   1.9570000  -7.4890000   3.9860000
   1.7980000  -6.6330000   3.4750000   2.5370000  -7.4890000   5.3820000
   2.6080000  -8.5020000   5.7790000   1.6550000  -6.6710000   6.3580000
   1.3990000  -5.3980000   6.2540000   4.0250000  -6.8610000   5.3370000
   4.5430000  -6.7280000   6.2870000   3.9200000  -5.8550000   4.9320000
   4.6400000  -7.4090000   4.6220000   1.0720000  -7.2710000   7.2720000
  -3.7400000   1.8600000   6.4620000  -3.0980000   0.5410000   6.1290000
  -3.6070000  -0.6170000   6.9840000  -2.4900000  -1.5100000   7.4620000
  -2.6190000  -2.9620000   6.8040000  -4.0550000  -3.3450000   6.3410000
  -4.0290000  -4.4270000   5.2130000  -1.9350000  -2.9730000   5.5970000
  -0.4730000  -3.0640000   5.6000000   0.1100000  -3.9860000   6.2470000
   0.2340000  -2.1330000   4.7070000  -0.3270000  -0.8270000   4.5140000
   0.2910000   0.1490000   3.5250000   0.3760000  -0.1150000   2.1740000
   0.9610000   0.8300000   1.2630000   1.4550000   2.0730000   1.6980000
   1.9750000   3.0430000   0.8630000   2.9870000   2.6580000  -0.1010000
   1.3410000   2.3220000   3.0630000   0.7640000   1.3990000   3.9470000
  -3.7960116   1.9750768   7.5545292  -3.1391614   2.6777918   6.0374892
  -4.7542921   1.8916554   6.0374892  -3.3030872   0.3106397   5.0731244
  -2.0218484   0.6444934   6.3319454  -4.1309406  -0.2064189   7.8597337
  -4.2801637  -1.2244312   6.3612016  -1.5242773  -1.0670920   7.1770223
  -2.5525744  -1.6063875   8.5559808  -2.2565633  -3.6414236   7.5895083
  -4.6135433  -3.7408670   7.2019987  -4.5382086  -2.4421423   5.9393069
  -4.0049248  -5.4288997   5.6664505  -4.9297759  -4.3283046   4.5894120
  -3.1340042  -4.2851530   4.5894120   1.1652625  -2.4295606   4.2022208
  -1.2157660  -0.5275800   5.0888414  -0.0119053  -1.0683564   1.7858748
   1.0242433   0.5739472   0.1950874   3.8875121   2.3154139   0.4297662
   2.6013263   1.8437796  -0.7321109   3.2400382   3.5226795  -0.7321109
   1.7165751   3.2758541   3.4618807   0.6794974   1.6658307   5.0107954
