
  400  0.0000000e+00
   5.7000000   4.3000000   0.0700000   5.5000000   3.3700000   0.4100000
   6.6900000   4.3200000  -0.0900000   5.2100000   4.2200000  -0.8100000
   5.1000000   5.3500000   1.0000000   5.4300000   5.0800000   2.0000000
   3.5900000   5.2300000   1.1000000   2.9100000   5.2100000   0.0700000
   5.6300000   6.8300000   0.7100000   4.8900000   7.5100000   0.3000000
   6.3400000   6.7200000  -0.1100000   6.2700000   7.4800000   1.9500000
   5.5400000   8.1700000   2.3700000   6.5200000   6.7300000   2.7000000
   7.5500000   8.2200000   1.5500000   7.4900000   8.9300000   0.7200000
   7.8600000   8.7800000   2.4300000   8.5200000   7.2400000   1.1700000
   8.3500000   6.4600000   0.5500000   9.7600000   7.1200000   1.7500000
  10.2800000   7.8700000   2.7500000   9.7800000   8.6300000   3.1900000
  11.1900000   7.6700000   3.1400000  10.5800000   6.2500000   1.2900000
  11.5600000   6.3300000   1.5100000  10.3600000   5.6300000   0.5200000
   2.9900000   5.5700000   2.2700000   3.5300000   5.8900000   3.0600000
   1.4900000   5.5300000   2.3600000   1.0500000   4.6200000   1.9500000
   1.2900000   5.7400000   3.4100000   0.8600000   6.5900000   1.4200000
   1.5000000   7.6000000   1.0300000  -0.4200000   6.3700000   1.0900000
  -0.8200000   5.4900000   1.4000000  -1.1800000   7.1400000   0.0700000
  -0.5100000   7.3400000  -0.7700000  -1.3400000   8.1500000   0.4200000
  -2.4600000   6.6200000  -0.5700000  -3.3300000   6.0600000   0.1300000
  -2.6300000   6.8100000  -1.8800000  -1.9500000   7.4500000  -2.2600000
  -3.8900000   6.3500000  -2.5600000  -4.8600000   6.5000000  -2.0800000
  -3.8900000   4.8200000  -2.9200000  -3.8800000   4.4300000  -4.1200000
  -4.0200000   7.1400000  -3.8000000  -3.1100000   6.9800000  -4.3700000
  -4.7800000   6.6900000  -4.4400000  -4.0500000   8.7100000  -3.6300000
  -4.6300000   9.1500000  -2.6000000  -3.3200000   9.3500000  -4.4100000
  -3.8000000   3.9300000  -1.9300000  -3.6300000   4.3200000  -1.0100000
  -3.4900000   2.4700000  -2.1400000  -3.2400000   2.0800000  -1.1500000
  -2.6900000   2.3900000  -2.8800000  -4.7300000   1.7000000  -2.6200000
  -5.8600000   2.1200000  -2.3800000  -4.5700000   0.4800000  -3.2100000
  -3.6400000   0.1000000  -3.3200000  -5.7200000  -0.1800000  -3.8300000
  -5.2800000  -0.9200000  -4.5000000  -6.3500000   0.5400000  -4.3400000
  -6.5000000  -1.0500000  -2.9100000  -6.8800000  -0.6100000  -1.7800000
  -6.9300000  -2.2100000  -3.4400000  -6.6600000  -2.6100000  -4.3200000
  -7.9200000  -3.0700000  -2.7400000  -8.8400000  -2.5200000  -2.5400000
  -7.4600000  -3.8000000  -1.4400000  -8.3200000  -4.0200000  -0.6200000
  -8.3400000  -4.1000000  -3.8700000  -7.4500000  -4.7100000  -4.0100000
  -8.4700000  -3.5600000  -4.8100000  -9.5800000  -4.9400000  -3.5600000
  -9.5400000  -5.4900000  -2.6200000 -10.4300000  -4.2500000  -3.4700000
  -9.7900000  -6.0200000  -4.6100000  -9.6600000  -5.5700000  -5.5900000
  -8.9700000  -6.7300000  -4.5700000 -11.0800000  -6.8800000  -4.3900000
 -11.9900000  -6.2700000  -4.3900000 -10.9200000  -7.3400000  -3.4100000
 -11.1800000  -7.8400000  -5.4800000 -12.0200000  -8.4000000  -5.4000000
 -11.2600000  -7.3600000  -6.3600000 -10.3400000  -8.4000000  -5.4800000
  -6.1400000  -4.1800000  -1.3800000  -5.6200000  -4.0400000  -2.2300000
  -5.4900000  -4.8400000  -0.2500000  -6.0700000  -4.6400000   0.6500000
  -5.4300000  -5.9200000  -0.3700000  -4.1500000  -4.1500000   0.0100000
  -3.6400000  -3.3600000  -0.8100000  -3.4700000  -4.5000000   1.1200000
  -3.9400000  -5.0900000   1.8000000  -2.0900000  -4.1500000   1.3900000
  -1.4500000  -4.3400000   0.5300000  -1.9900000  -3.1000000   1.6700000
  -1.5100000  -5.0300000   2.5900000  -2.2500000  -5.5200000   3.4500000
  -0.1500000  -5.1600000   2.6300000   0.3800000  -4.9800000   1.7900000
   0.5800000  -5.8800000   3.7100000   0.1900000  -6.9000000   3.7700000
   1.6400000  -5.9700000   3.5000000   0.3100000  -5.3300000   5.1100000
  -0.1900000  -4.2400000   5.2700000   0.7200000  -6.1100000   6.1300000
   1.2700000  -6.9300000   5.9100000   0.1200000  -6.0100000   7.5000000
   0.3400000  -6.8800000   8.1200000  -0.9600000  -6.0100000   7.3500000
   0.6200000  -4.8100000   8.3200000  -0.0900000  -4.1300000   9.0800000
   1.8300000  -4.3300000   8.0100000   2.3300000  -4.8000000   7.2600000
   2.4200000  -3.0200000   8.4100000   1.6400000  -2.3600000   8.8000000
   2.9600000  -2.3400000   7.1600000   3.2800000  -2.9600000   6.1900000
   3.5800000  -3.1900000   9.4200000   4.3000000  -3.9300000   9.0800000
   4.0500000  -2.2300000   9.6100000   3.1600000  -3.6600000  10.8000000
   2.4700000  -4.5000000  10.7100000   4.4000000  -3.8200000  11.7000000
   4.8800000  -2.8900000  11.9900000   5.1400000  -4.4900000  11.2600000
   3.9800000  -4.3400000  12.5600000   2.3100000  -2.5100000  11.4200000
   1.3700000  -2.4600000  10.8600000   2.0900000  -2.6100000  12.4800000
   2.9100000  -1.6100000  11.3300000   3.0600000  -1.0100000   7.2000000
   2.5600000  -0.5400000   7.9400000   3.5800000  -0.2600000   6.0300000
   4.2300000   0.5800000   6.2600000   4.2700000  -0.9000000   5.4800000
   2.5500000   0.1800000   4.9700000   2.8700000   0.7300000   3.9500000
   1.2700000  -0.0500000   5.2000000   1.0800000  -0.3900000   6.1300000
   0.0800000   0.0700000   4.3500000   0.3200000  -0.2800000   3.3500000
  -0.3000000   1.0900000   4.3600000  -1.0300000  -0.7400000   4.9700000
  -0.9700000  -1.1000000   6.1400000  -2.0600000  -0.9000000   4.1400000
  -2.0000000  -0.6000000   3.1800000  -3.3000000  -1.6200000   4.6300000
  -3.0700000  -2.6400000   4.9500000  -3.7400000  -1.0400000   5.4300000
  -4.4800000  -1.6400000   3.5700000  -5.4600000  -2.3900000   3.7000000
  -4.3000000  -0.9400000   2.4300000  -3.4800000  -0.3700000   2.3700000
  -5.2300000  -0.7000000   1.3000000  -4.7200000  -1.0000000   0.3800000
  -6.1200000  -1.3100000   1.4300000  -5.5800000   0.7800000   1.0500000
  -4.7400000   1.6300000   0.8500000  -6.9500000   0.9300000   0.9100000
  -7.5200000   0.1600000   1.2500000  -7.6700000   2.1500000   0.3500000
  -7.4200000   2.4500000  -0.6600000  -7.4200000   3.4700000   1.0700000
  -7.7500000   3.5900000   2.2700000  -9.1800000   1.9100000   0.2400000
  -9.7600000   2.8300000   0.2200000  -9.6300000   1.4800000   1.1400000
  -9.6000000   1.1300000  -0.9700000  -9.0200000   1.6200000  -1.7500000
  -9.3100000   0.0800000  -0.9500000 -11.1000000   1.3800000  -1.3100000
 -11.6000000   0.8400000  -0.5100000 -11.4200000   2.4100000  -1.1500000
 -11.4000000   0.7800000  -2.7100000 -10.6700000   1.1800000  -3.4100000
 -11.3400000  -0.3000000  -2.5300000 -12.6800000   1.1100000  -3.3000000
 -13.3900000   0.8000000  -2.6500000 -12.6400000   2.1200000  -3.4000000
 -12.7500000   0.7700000  -4.2500000  -6.7700000   4.4500000   0.4300000
  -6.6600000   4.3500000  -0.5700000  -6.4500000   5.6400000   1.1600000
  -7.3800000   6.0600000   1.5400000  -5.9600000   6.4100000   0.5600000
  -5.5000000   5.3300000   2.4000000  -5.4100000   6.2200000   3.2600000
  -4.8100000   4.2100000   2.5100000  -5.0200000   3.5000000   1.8200000
  -3.7500000   3.8400000   3.4800000  -3.7900000   4.6300000   4.2300000
  -2.3800000   3.8400000   2.8900000  -1.3500000   4.4600000   3.2900000
  -4.0700000   2.4900000   4.1800000  -4.0000000   1.7200000   3.4100000
  -5.4600000   2.4500000   4.8200000  -6.1800000   2.9300000   4.1600000
  -5.4500000   3.1500000   5.6500000  -3.0600000   2.2300000   5.3300000
  -2.0700000   2.3600000   4.9000000  -3.1900000   1.2800000   5.8400000
  -3.1800000   3.0100000   6.0800000  -5.9300000   1.0800000   5.3400000
  -5.2500000   0.6100000   6.0500000  -6.0800000   0.5000000   4.4300000
  -6.9300000   1.1500000   5.7600000  -2.2700000   3.0800000   1.7700000
  -3.0600000   2.5700000   1.4100000  -1.0200000   2.6200000   1.1800000
  -0.2400000   2.9700000   1.8600000  -1.0000000   3.0000000   0.1600000
  -0.9700000   1.1400000   1.1000000  -1.8000000   0.3200000   1.5400000
   0.2800000   0.7000000   0.7400000   0.9900000   1.4000000   0.5600000
   0.5400000  -0.7100000   0.3600000  -0.3000000  -1.3300000   0.6600000
   1.9100000  -1.0900000   1.0100000   3.0500000  -0.5900000   0.6600000
   0.6600000  -0.7500000  -1.1900000   0.6000000  -1.8000000  -1.4600000
   1.6400000  -0.3800000  -1.4900000  -0.4600000   0.0500000  -1.9200000
  -0.0900000   1.0700000  -2.0100000  -1.4200000  -0.0200000  -1.4200000
  -0.6100000  -0.3700000  -3.3200000  -1.6700000  -0.0100000  -3.8400000
   0.2600000  -1.0700000  -3.8700000   1.8800000  -1.9500000   2.0400000
   1.0600000  -2.3900000   2.4200000   3.0400000  -2.7300000   2.5200000
   3.9600000  -2.2400000   2.2300000   2.8300000  -2.9900000   3.5600000
   3.0800000  -4.0700000   1.6600000   2.4800000  -4.3100000   0.6300000
   3.8700000  -5.0200000   2.2000000   4.3700000  -4.8300000   3.0500000
   4.1900000  -6.2700000   1.5300000   4.2100000  -6.1600000   0.4400000
   2.9900000  -7.2300000   1.6600000   2.9300000  -7.9700000   2.6500000
   5.5300000  -6.8300000   2.0300000   5.7900000  -7.8400000   1.7000000
   5.4700000  -6.9400000   3.1200000   6.6700000  -5.9100000   1.7100000
   7.4600000  -5.3000000   2.6000000   7.2300000  -5.2300000   3.6500000
   7.2000000  -5.5000000   0.3500000   8.3300000  -4.4200000   1.9300000
   8.9100000  -3.7200000   2.3700000   8.1600000  -4.4800000   0.5600000
   6.7600000  -5.8200000  -0.9700000   5.9400000  -6.4800000  -1.1900000
   8.6600000  -3.7600000  -0.5400000   9.3300000  -2.9300000  -0.3700000
   7.3400000  -5.1100000  -2.0800000   7.1400000  -5.4000000  -3.1000000
   8.2700000  -4.0600000  -1.8700000   8.5700000  -3.4800000  -2.7200000
   2.0400000  -7.2500000   0.7100000   2.3400000  -6.7900000  -0.1400000
   0.7400000  -7.9500000   0.7600000   0.8900000  -9.0000000   0.5400000
   0.3800000  -7.8800000   1.7900000  -0.4600000  -7.4400000  -0.0700000
  -0.4000000  -6.2900000  -0.5600000  -1.4800000  -8.2500000  -0.2200000
  -1.4700000  -9.1000000   0.3100000  -2.7700000  -8.0800000  -0.9600000
  -3.3300000  -9.0100000  -0.8700000  -3.3700000  -7.3500000  -0.4100000
  -2.8900000  -7.5900000  -2.3800000  -1.9300000  -7.6500000  -3.0900000
  -4.0600000  -7.1900000  -2.8400000  -4.8500000  -7.3000000  -2.2200000
  -4.2800000  -6.5600000  -4.1500000  -3.5100000  -7.0100000  -4.7700000
  -4.0100000  -5.0200000  -4.2300000  -4.9800000  -4.2400000  -4.3100000
  -5.6500000  -6.9700000  -4.5400000  -6.3000000  -6.7700000  -3.6900000
  -5.9200000  -6.4200000  -5.4400000  -5.9600000  -8.4100000  -4.9000000
  -5.0300000  -9.1600000  -5.3700000  -7.0300000  -8.9300000  -4.5400000
  -2.7800000  -4.5700000  -4.0200000  -2.0300000  -5.2400000  -4.1000000
  -2.4700000  -3.1100000  -4.1200000  -1.5700000  -2.8800000  -3.5600000
  -3.2300000  -2.5200000  -3.6200000  -2.2300000  -2.7400000  -5.5500000
  -1.9000000  -3.6200000  -6.3600000  -2.6100000  -1.4900000  -5.9200000
  -2.5500000  -0.8700000  -5.1200000  -2.9000000  -0.9000000  -7.2400000
  -2.4900000  -1.6200000  -7.9400000  -2.3500000   0.5400000  -7.4100000
  -2.5600000   1.2000000  -8.4300000  -4.3800000  -0.8100000  -7.5500000
  -4.8200000  -0.0500000  -6.9000000  -4.5300000  -0.5700000  -8.6000000
  -5.1200000  -1.9700000  -7.2400000  -5.9100000  -1.5300000  -6.9300000
  -1.5500000   1.0200000  -6.4700000  -1.2900000   0.5300000  -5.6300000
  -1.4000000   2.4300000  -6.4700000  -1.0300000   2.8400000  -7.4100000
  -2.4300000   2.7600000  -6.3500000  -0.4800000   2.9800000  -5.3900000
   0.7000000   2.6500000  -5.3200000  -0.9700000   3.8900000  -4.5500000
  -1.9300000   4.2000000  -4.5900000  -0.0800000   4.4700000  -3.5300000
   0.4000000   3.7400000  -2.8800000  -0.6700000   5.1000000  -2.8700000
   1.0100000   5.4300000  -4.0800000   0.9900000   5.8900000  -5.2600000
   2.0700000   5.6000000  -3.3100000   1.9600000   5.4300000  -2.3200000
   3.3700000   6.1600000  -3.7500000   3.3300000   6.5200000  -4.7800000
   4.5900000   5.2800000  -3.5400000   4.7800000   4.8400000  -2.4500000
   3.5300000   7.4300000  -2.9200000   2.6600000   8.0600000  -3.1100000
   3.5000000   7.1500000  -1.8700000   4.9200000   8.2900000  -3.1100000
   5.3100000   7.9300000  -4.0600000   5.5500000   8.2000000  -2.2300000
   4.7100000   9.8300000  -3.2500000   3.7900000  10.3800000  -3.9200000
   5.5700000  10.5200000  -2.6100000   5.3900000   4.9600000  -4.5800000
   5.0200000   5.3000000  -5.4500000   6.5000000   4.0800000  -4.5800000
   6.2800000   3.1400000  -4.0700000   6.9100000   3.8800000  -5.5700000
   7.6800000   4.6800000  -3.8300000   8.7800000   4.0500000  -3.8300000
   7.6100000   5.9100000  -3.3300000   6.7400000   6.4200000  -3.4300000
   8.7600000   6.4400000  -2.4800000   9.6800000   6.4100000  -3.0700000
   9.1500000   5.4900000  -1.4000000  10.3400000   5.2300000  -1.3000000
   8.5100000   7.8500000  -2.0700000   7.8600000   7.9300000  -1.2100000
   8.1200000   8.3900000  -2.9400000   9.7800000   8.3100000  -1.6900000
  10.2900000   8.3700000  -2.5000000   8.2400000   4.9900000  -0.7200000
   5.7050000  -5.7710000  -3.1570000   4.2550000  -5.4810000  -2.8590000
   3.9810000  -4.0060000  -2.7830000   4.2000000  -3.3320000  -4.0980000
   5.1270000  -2.1370000  -4.0260000   4.4850000  -0.9120000  -4.6600000
   4.6090000   0.3680000  -3.8550000   6.3180000  -2.4510000  -4.7080000
   7.4160000  -2.6950000  -4.0080000   8.2980000  -3.4290000  -4.3990000
   7.4130000  -2.0240000  -2.7020000   8.0890000  -0.8800000  -2.5520000
   8.2330000  -0.2100000  -1.2480000   9.4100000  -0.2400000  -0.5360000
   9.5210000   0.4330000   0.6700000   8.4510000   1.1260000   1.1680000
   8.5080000   1.8210000   2.3420000   9.5360000   1.5360000   3.2840000
   7.2650000   1.1640000   0.4590000   7.1570000   0.4810000  -0.7460000
   6.2583599  -5.8816720  -2.2127836   5.7808697  -6.7021057  -3.7377632
   6.1331512  -4.9406984  -3.7377632   3.6344511  -5.9170419  -3.6557349
   4.0139256  -5.9225464  -1.8807772   2.9362261  -3.8534795  -2.4744793
   4.6771688  -3.5663195  -2.0535961   4.6323595  -4.0646499  -4.7953445
   3.2212285  -2.9581306  -4.4330045   5.3363843  -1.9066765  -2.9709601
   4.9592362  -0.7465496  -5.6386348   3.4087611  -1.1295002  -4.7263583
   4.5859084   0.1296348  -2.7813852   5.5594580   0.8646024  -4.0999809
   3.7715380   1.0378072  -4.0999809   6.8603484  -2.4579012  -1.8556514
   8.5555268  -0.4215887  -3.4364274  10.2700612  -0.8030197  -0.9275399
  10.4691425   0.4103288   1.2272358   9.1393456   1.6459674   4.3040845
   9.8916645   0.5053744   3.1380078  10.3715620   2.2363731   3.1380078
   6.4083766   1.7339055   0.8481067   6.2067534   0.4935617  -1.2999618
