
  400  0.0000000e+00
   4.8900000   4.1700000  -0.5200000   4.3200000   3.3400000  -0.6200000
   5.8800000   3.9600000  -0.6000000   4.6100000   4.7300000  -1.3000000
   4.5900000   4.9900000   0.6800000   4.8200000   4.4100000   1.5800000
   3.1000000   5.3400000   0.7100000   2.4100000   5.1800000  -0.2700000
   5.4800000   6.2600000   0.5100000   4.9400000   7.0100000  -0.0700000
   6.4400000   5.9700000   0.0800000   5.7300000   6.7300000   1.9000000
   4.8900000   6.9500000   2.5500000   6.3900000   6.0500000   2.4500000
   6.5100000   8.0700000   1.7700000   6.0700000   8.6700000   0.9800000
   6.4400000   8.6900000   2.6600000   7.8900000   7.9600000   1.3500000
   8.1200000   8.1400000   0.3800000   8.8700000   7.6100000   2.0900000
   8.8400000   7.3700000   3.3700000   8.0300000   7.4100000   3.9700000
   9.6800000   7.2100000   3.9200000  10.0300000   7.4900000   1.4400000
  10.8000000   7.3200000   2.0800000  10.0900000   7.6500000   0.4500000
   2.5700000   5.8900000   1.8100000   3.2600000   6.0300000   2.5400000
   1.1900000   6.0700000   2.1300000   0.6700000   5.1400000   2.3500000
   1.1600000   6.6900000   3.0300000   0.5200000   6.9600000   1.0400000
   1.0800000   7.9500000   0.6600000  -0.6100000   6.5400000   0.5100000
  -1.0200000   5.6900000   0.8800000  -1.4100000   7.2700000  -0.4300000
  -0.7400000   7.6500000  -1.1900000  -1.8300000   8.1700000   0.0100000
  -2.5500000   6.4000000  -1.0000000  -3.1000000   5.5300000  -0.3300000
  -3.1000000   6.8100000  -2.1600000  -2.7300000   7.6100000  -2.6700000
  -4.3400000   6.2400000  -2.8000000  -4.9400000   6.0600000  -1.9100000
  -4.1000000   4.8300000  -3.4300000  -4.2900000   4.5900000  -4.6200000
  -4.9900000   7.2300000  -3.8100000  -4.3400000   7.3000000  -4.6800000
  -5.9600000   6.8800000  -4.1500000  -5.1000000   8.6500000  -3.2100000
  -5.1000000   9.6500000  -3.9600000  -5.5000000   8.7300000  -2.0200000
  -3.7100000   3.8500000  -2.6200000  -3.7500000   3.9900000  -1.6200000
  -3.7200000   2.4000000  -3.0000000  -3.2900000   1.8700000  -2.1400000
  -3.0000000   2.3700000  -3.8100000  -5.0700000   1.7700000  -3.3900000
  -6.1100000   2.3600000  -3.2500000  -5.0600000   0.5900000  -4.0200000
  -4.2200000   0.0300000  -3.9800000  -6.2300000  -0.1000000  -4.6300000
  -6.0200000  -0.7000000  -5.5200000  -6.9800000   0.5700000  -5.0400000
  -6.9500000  -1.0000000  -3.5400000  -6.9800000  -0.7400000  -2.3800000
  -7.5500000  -2.0800000  -4.0100000  -7.5900000  -2.2200000  -5.0100000
  -8.1900000  -3.1700000  -3.3100000  -8.8200000  -2.7100000  -2.5500000
  -7.2100000  -4.0600000  -2.5500000  -7.4100000  -5.2300000  -2.3100000
  -9.1700000  -3.9100000  -4.2200000  -8.6000000  -4.4900000  -4.9500000
  -9.6400000  -3.1500000  -4.8400000 -10.3200000  -4.7800000  -3.5600000
  -9.9700000  -4.9600000  -2.5400000 -11.2200000  -4.1700000  -3.4200000
 -10.8300000  -6.0800000  -4.0500000 -11.5200000  -5.7800000  -4.8400000
 -10.0300000  -6.6700000  -4.5000000 -11.6800000  -6.9200000  -3.0700000
 -12.6800000  -6.4900000  -3.0500000 -11.1800000  -6.8100000  -2.1100000
 -11.8600000  -8.2700000  -3.6200000 -11.0000000  -8.7800000  -3.7000000
 -12.5900000  -8.8000000  -3.1600000 -12.1100000  -8.2000000  -4.5900000
  -6.1100000  -3.5300000  -2.1300000  -6.0200000  -2.5300000  -2.2300000
  -5.2900000  -4.0100000  -1.0500000  -5.7000000  -3.7500000  -0.0700000
  -5.2900000  -5.0900000  -0.9800000  -3.8200000  -3.4300000  -1.1400000
  -3.3400000  -2.8400000  -2.0900000  -3.1100000  -3.8400000  -0.0800000
  -3.6600000  -4.2100000   0.6700000  -1.7400000  -3.4200000   0.1300000
  -1.0100000  -3.7700000  -0.6100000  -1.6300000  -2.3300000   0.0900000
  -1.1800000  -3.8400000   1.5600000  -0.4500000  -3.1000000   2.2200000
  -1.6500000  -4.9700000   2.0700000  -2.1000000  -5.5400000   1.3700000
  -1.3200000  -5.6500000   3.2700000  -1.6900000  -4.9400000   4.0200000
  -2.0300000  -6.4900000   3.3200000   0.0800000  -6.1400000   3.5600000
   1.0100000  -5.8900000   2.8400000   0.2200000  -6.8700000   4.6800000
  -0.5500000  -7.1200000   5.2800000   1.5000000  -7.0300000   5.3200000
   2.2900000  -7.2300000   4.6000000   1.4200000  -7.7900000   6.0900000
   1.7000000  -5.7600000   6.2000000   0.7200000  -5.2800000   6.7600000
   2.9200000  -5.2000000   6.1600000   3.6800000  -5.7300000   5.7500000
   3.2500000  -3.8200000   6.5400000   2.2900000  -3.3200000   6.7100000
   3.7900000  -2.9600000   5.3800000   4.2300000  -3.4600000   4.3200000
   4.1200000  -3.7400000   7.8900000   5.1000000  -4.1500000   7.6600000
   4.0700000  -2.6900000   8.1700000   3.4900000  -4.6000000   9.0000000
   2.4100000  -4.4600000   9.0000000   3.8900000  -6.1000000   9.0600000
   4.9700000  -6.1400000   9.2000000   3.6200000  -6.6700000   8.1800000
   3.3200000  -6.5700000   9.8700000   3.8700000  -4.0000000  10.3200000
   3.5300000  -2.9700000  10.3700000   3.4300000  -4.5400000  11.1500000
   4.9600000  -3.9700000  10.4200000   3.5300000  -1.6700000   5.4200000
   3.1600000  -1.3000000   6.2800000   3.7200000  -0.6500000   4.3600000
   4.1600000   0.2400000   4.8000000   4.2900000  -0.9900000   3.4900000
   2.3800000  -0.0700000   3.8300000   2.3700000   0.9500000   3.1000000
   1.2300000  -0.5600000   4.3100000   1.1400000  -1.3600000   4.9300000
   0.0000000   0.0900000   3.9200000  -0.0300000  -0.0200000   2.8400000
  -0.0600000   1.1400000   4.2000000  -1.1800000  -0.7700000   4.3500000
  -1.2200000  -1.3800000   5.3600000  -2.2000000  -0.8000000   3.5000000
  -1.9700000  -0.2300000   2.7000000  -3.3300000  -1.8100000   3.5300000
  -2.9800000  -2.8500000   3.4600000  -3.9300000  -1.5800000   4.4000000
  -4.3000000  -1.6900000   2.2700000  -5.2300000  -2.4700000   2.1500000
  -4.0500000  -0.7300000   1.3600000  -3.2600000  -0.1300000   1.5400000
  -5.0600000  -0.2400000   0.5300000  -4.8400000  -0.4400000  -0.5200000
  -6.0000000  -0.7000000   0.8400000  -5.3900000   1.2500000   0.6200000
  -4.5400000   1.9600000   1.1700000  -6.6400000   1.6900000   0.2400000
  -7.3600000   1.0200000   0.0300000  -7.0300000   3.0900000   0.1200000
  -6.4300000   3.6200000  -0.6200000  -6.9400000   3.8300000   1.4800000
  -7.0500000   3.2200000   2.5400000  -8.4900000   3.1800000  -0.4000000
  -8.7400000   4.2400000  -0.3700000  -9.1300000   2.7000000   0.3400000
  -8.7500000   2.5300000  -1.7800000  -8.2800000   3.2100000  -2.4800000
  -8.2400000   1.5700000  -1.8100000 -10.2500000   2.2200000  -2.0400000
 -10.6300000   1.6200000  -1.2100000 -10.7700000   3.1700000  -2.2100000
 -10.3600000   1.4100000  -3.3500000  -9.6900000   1.8700000  -4.0700000
 -10.0700000   0.3900000  -3.0800000 -11.7300000   1.4800000  -3.8800000
 -11.9600000   0.6400000  -4.3900000 -12.4400000   1.6800000  -3.1900000
 -11.7900000   2.2700000  -4.5200000  -6.6700000   5.1300000   1.4300000
  -6.7100000   5.5400000   0.5000000  -6.1800000   5.9800000   2.5100000
  -6.8200000   5.8200000   3.3800000  -6.0800000   7.0000000   2.1400000
  -4.7500000   5.6800000   3.0600000  -4.1800000   6.4700000   3.7800000
  -4.1800000   4.4500000   2.8700000  -4.6800000   3.8000000   2.3000000
  -3.0700000   3.8700000   3.7100000  -2.6100000   4.5900000   4.3900000
  -1.8700000   3.6100000   2.7900000  -0.7200000   3.5200000   3.2400000
  -3.3900000   2.5700000   4.4500000  -3.1800000   1.7800000   3.7300000
  -4.8300000   2.3400000   5.0200000  -5.6100000   3.0400000   4.6900000
  -4.8400000   2.4300000   6.1000000  -2.4500000   2.3500000   5.6500000
  -2.7600000   1.4300000   6.1400000  -2.4500000   3.2600000   6.2400000
  -1.4100000   2.2100000   5.3400000  -5.4300000   0.9800000   4.6700000
  -6.2600000   0.7300000   5.3300000  -4.6300000   0.2700000   4.8900000
  -5.7200000   0.9500000   3.6200000  -2.0000000   3.5100000   1.3900000
  -2.9100000   3.7000000   0.9900000  -0.9700000   3.0500000   0.4800000
  -0.0400000   3.5900000   0.6500000  -1.3200000   3.2700000  -0.5300000
  -0.7500000   1.5600000   0.6500000  -1.5800000   0.7900000   1.1400000
   0.3900000   0.9900000   0.1700000   1.1500000   1.5900000  -0.1100000
   0.5900000  -0.5100000  -0.1600000  -0.1200000  -1.0800000   0.4500000
   2.0200000  -1.0900000   0.2100000   3.0500000  -0.4800000  -0.1500000
   0.2700000  -0.7300000  -1.6900000   0.0600000  -1.7800000  -1.9100000
   1.1000000  -0.3000000  -2.2500000  -0.9300000   0.0500000  -2.2000000
  -0.6900000   1.1200000  -2.2500000  -1.7400000  -0.0900000  -1.4900000
  -1.3500000  -0.4100000  -3.6200000  -2.4800000  -0.2200000  -4.0200000
  -0.4600000  -1.0200000  -4.2600000   2.0900000  -2.2100000   0.9700000
   1.2000000  -2.6100000   1.2400000   3.3400000  -3.0100000   1.2900000
   4.2500000  -2.4200000   1.2000000   3.2600000  -3.4500000   2.2900000
   3.5000000  -4.1400000   0.2400000   3.1000000  -3.9200000  -0.9200000
   3.9800000  -5.3400000   0.6300000   4.2600000  -5.6100000   1.5700000
   4.2200000  -6.4200000  -0.3400000   4.2700000  -5.8400000  -1.2600000
   3.1400000  -7.4600000  -0.6700000   3.4800000  -8.5100000  -1.2300000
   5.6600000  -7.0000000  -0.0500000   5.9500000  -7.6900000  -0.8500000
   5.5700000  -7.6400000   0.8300000   6.7200000  -5.9400000   0.0500000
   7.5100000  -5.7800000   1.0800000   7.4800000  -6.4800000   1.9000000
   7.0100000  -4.8700000  -0.9500000   8.2700000  -4.6700000   0.9200000
   8.9100000  -4.2400000   1.5800000   8.1100000  -4.1200000  -0.3700000
   6.6500000  -4.3900000  -2.2100000   5.8900000  -4.8600000  -2.8100000
   8.8900000  -3.1700000  -1.0000000   9.7600000  -2.7500000  -0.5200000
   7.3600000  -3.3700000  -2.8900000   7.0000000  -3.0000000  -3.8400000
   8.5300000  -2.8600000  -2.3200000   9.1400000  -2.0900000  -2.7600000
   1.8700000  -7.1700000  -0.4700000   1.7000000  -6.3300000   0.0600000
   0.6900000  -8.0300000  -0.7800000   0.9400000  -8.4000000  -1.7700000
   0.4800000  -8.8600000  -0.1100000  -0.6500000  -7.3000000  -0.8200000
  -0.5700000  -6.1000000  -0.4800000  -1.7100000  -7.9900000  -1.2800000
  -1.5500000  -8.8600000  -1.7500000  -3.0700000  -7.4600000  -1.4900000
  -3.8400000  -8.2100000  -1.3100000  -3.2100000  -6.5600000  -0.9000000
  -3.2900000  -7.1200000  -2.9700000  -2.3600000  -7.3500000  -3.8100000
  -4.5200000  -6.5900000  -3.2500000  -5.2300000  -6.5500000  -2.5300000
  -4.9800000  -6.3100000  -4.7000000  -4.2700000  -6.7200000  -5.4100000
  -4.9200000  -4.8400000  -5.0300000  -5.9200000  -4.2400000  -5.2600000
  -6.3700000  -6.8800000  -4.9300000  -7.1000000  -6.4000000  -4.2800000
  -6.7700000  -6.6100000  -5.9100000  -6.4000000  -8.3900000  -4.7300000
  -5.3800000  -9.0400000  -5.0800000  -7.3600000  -8.9700000  -4.2400000
  -3.7200000  -4.2400000  -4.9500000  -2.8800000  -4.7600000  -4.7300000
  -3.5800000  -2.7500000  -5.1700000  -2.5600000  -2.4500000  -4.8900000
  -4.2600000  -2.3000000  -4.4500000  -3.7000000  -2.1200000  -6.5200000
  -3.7500000  -2.8400000  -7.5100000  -3.6300000  -0.8000000  -6.6100000
  -3.3800000  -0.3600000  -5.7300000  -3.8200000   0.0700000  -7.8400000
  -3.2000000  -0.3200000  -8.6500000  -3.5100000   1.5500000  -7.4600000
  -4.1000000   2.5200000  -8.0300000  -5.2400000   0.0000000  -8.3300000
  -5.6200000  -1.0200000  -8.3500000  -5.8500000   0.6400000  -7.6800000
  -5.4500000   0.6200000  -9.5600000  -5.3000000   1.5700000  -9.5800000
  -2.5200000   1.8900000  -6.5800000  -2.1100000   1.2000000  -5.9700000
  -1.8200000   3.2300000  -6.6500000  -1.0500000   3.1500000  -7.4200000
  -2.6400000   3.8700000  -6.9700000  -1.1600000   3.6400000  -5.3400000
  -0.4900000   2.8400000  -4.7600000  -1.2600000   4.8900000  -4.9200000
  -1.5900000   5.5500000  -5.6100000  -0.4300000   5.4000000  -3.8200000
   0.0200000   4.6600000  -3.1600000  -1.0700000   6.0400000  -3.2100000
   0.7700000   6.1600000  -4.3900000   0.9200000   6.4600000  -5.5800000
   1.7400000   6.3900000  -3.5100000   1.5700000   6.2300000  -2.5200000
   3.0000000   7.1600000  -3.7000000   2.9100000   7.6000000  -4.7000000
   4.2100000   6.2200000  -3.7700000   4.5600000   5.6300000  -2.7500000
   3.2200000   8.2800000  -2.6800000   2.3500000   8.9300000  -2.7600000
   3.2200000   7.7700000  -1.7100000   4.5200000   9.1000000  -2.8300000
   5.4100000   8.5200000  -3.0700000   4.7200000   9.3600000  -1.7900000
   4.3800000  10.4000000  -3.7100000   3.5600000  10.4500000  -4.6400000
   5.2100000  11.3300000  -3.5200000   4.8900000   6.0600000  -4.8800000
   4.7300000   6.7100000  -5.6400000   5.8900000   4.9700000  -5.2200000
   5.3900000   4.0100000  -5.1600000   6.1300000   5.0300000  -6.2800000
   7.2300000   4.9300000  -4.4300000   8.0900000   4.2100000  -4.8600000
   7.3100000   5.8000000  -3.3800000   6.4400000   6.2000000  -3.0600000
   8.5300000   5.9700000  -2.6500000   9.4200000   6.0300000  -3.2800000
   8.8500000   4.8000000  -1.7500000  10.0600000   4.4500000  -1.6100000
   8.4300000   7.2900000  -1.9900000   7.5900000   7.2100000  -1.2900000
   8.2300000   8.0300000  -2.7600000   9.5400000   7.5700000  -1.2100000
  10.2100000   7.9200000  -1.8000000   7.8900000   4.4100000  -1.0100000
  10.1450000   3.3980000   5.5280000   9.6330000   2.0830000   5.9480000
   9.9970000   0.9690000   5.0570000   9.2380000   0.8700000   3.7910000
   7.8700000   0.2100000   3.8320000   7.1350000   0.2270000   2.4840000
   5.8090000   0.8680000   2.4740000   7.9950000  -1.1680000   4.1500000
   7.6760000  -1.6100000   5.3440000   7.5450000  -0.8880000   6.2820000
   7.5550000  -3.0740000   5.3220000   7.7330000  -3.7950000   6.5000000
   7.4960000  -5.2130000   6.6310000   7.9270000  -5.8000000   7.7830000
   7.7310000  -7.1180000   7.9850000   7.0860000  -7.8990000   7.0330000
   6.9120000  -9.2160000   7.3140000   6.2550000 -10.0230000   6.3550000
   6.6440000  -7.3090000   5.8770000   6.8510000  -5.9670000   5.6850000
  10.3798440   4.0011637   6.4174053  11.0557828   3.2617777   4.9264036
   9.3818950   3.9135120   4.9264036  10.0305139   1.8644450   6.9501060
   8.5355736   2.1544169   5.9244449  11.0616495   1.0770953   4.8023692
   9.7558437   0.0534491   5.6170092   9.0968378   1.8932529   3.4128112
   9.8450249   0.2074503   3.1565328   7.3091245   0.7879060   4.5812953
   7.7708390   0.7600944   1.7618372   6.9532668  -0.8288406   2.2346536
   5.4725534   1.0306412   3.5085780   5.8729514   1.8346669   1.9529767
   5.0911634   0.2174269   1.9529767   7.3254591  -3.5968290   4.3818081
   8.0770933  -3.2476234   7.3899318   8.4358135  -5.1968802   8.5493911
   8.0865487  -7.5823997   8.9166212   5.6410461 -10.7771260   6.8691542
   5.6101203  -9.3925385   5.7251997   7.0031367 -10.5266299   5.7251997
   6.1282279  -7.9064238   5.1107991   6.4949867  -5.4894914   4.7602081
