
  542  0.0000000e+00
  -0.7780000 -12.3340000   1.7670000  -0.1160000 -11.6890000   1.3620000
  -0.7570000 -13.0620000   1.0670000  -0.3910000 -12.6420000   2.6480000
  -2.0910000 -11.6860000   1.9710000  -2.7170000 -12.4430000   2.4430000
  -2.8480000 -11.5650000   0.6610000  -3.9270000 -12.0860000   0.5850000
  -2.0320000 -10.2360000   2.6930000  -3.0240000  -9.8270000   2.5020000
  -1.2070000  -9.6590000   2.2760000  -2.0690000 -10.4160000   4.2600000
  -1.7850000  -9.4550000   4.6890000  -1.2560000 -11.0680000   4.5790000
  -3.3590000 -10.8610000   4.9260000  -4.1410000 -10.1420000   4.6820000
  -3.6860000 -11.8280000   4.5430000  -3.2370000 -11.0210000   6.4210000
  -3.3910000 -10.1620000   6.9300000  -3.1940000 -12.1290000   7.1200000
  -2.8560000 -13.2660000   6.4510000  -2.6510000 -13.4090000   5.4720000
  -3.0300000 -14.1230000   6.9560000  -3.3630000 -12.0450000   8.3420000
  -3.5430000 -11.1950000   8.8570000  -3.0530000 -12.8160000   8.9160000
  -2.2490000 -10.8650000  -0.3260000  -1.2560000 -10.7200000  -0.2150000
  -2.8800000 -10.7910000  -1.7020000  -3.8930000 -11.1940000  -1.6950000
  -2.0630000 -11.6230000  -2.7340000  -2.5210000 -11.8610000  -3.8670000
  -3.0670000  -9.4090000  -2.3280000  -2.1440000  -9.1720000  -2.8560000
  -3.9120000  -9.4390000  -3.0160000  -3.3820000  -8.2750000  -1.3380000
  -2.4850000  -8.1120000  -0.7400000  -3.5250000  -6.9890000  -2.1440000
  -4.3730000  -6.9740000  -2.8280000  -3.5280000  -6.1570000  -1.4400000
  -2.6690000  -6.8490000  -2.8040000  -4.6310000  -8.4410000  -0.4520000
  -5.5080000  -8.3700000  -1.0950000  -4.7130000  -7.6570000   0.3010000
  -4.6940000  -9.4250000   0.0140000  -0.8460000 -12.0570000  -2.3310000
  -0.4420000 -11.8320000  -1.4330000   0.0610000 -12.8900000  -3.1530000
   0.1570000 -12.3580000  -4.0990000  -0.4950000 -14.2860000  -3.3930000
  -1.3470000 -14.7100000  -2.5800000   1.4070000 -12.9240000  -2.4400000
   1.2480000 -13.4700000  -1.5100000   2.0990000 -13.3760000  -3.1500000
   1.9350000 -11.5560000  -2.1060000   3.0190000 -11.4670000  -2.1790000
   1.4640000 -10.8560000  -2.7970000   1.5880000 -11.0480000  -0.6660000
   2.5350000 -10.3970000  -0.0930000   0.4770000 -11.1660000  -0.1290000
  -0.1630000 -14.8690000  -4.4920000   0.6330000 -14.4940000  -4.9890000
  -0.9010000 -15.9600000  -5.1560000  -0.9220000 -16.7000000  -4.3550000
  -0.2880000 -16.3040000  -5.9890000  -2.3390000 -15.7920000  -5.6970000
  -2.8250000 -16.4370000  -6.6450000  -3.0720000 -14.9540000  -4.9870000
  -2.6460000 -14.5360000  -4.1720000  -4.5030000 -14.6190000  -5.1110000
  -5.0320000 -15.5350000  -5.3750000  -4.7280000 -13.6990000  -6.3110000
  -5.5530000 -13.8810000  -7.1920000  -5.1360000 -14.0910000  -3.7930000
  -4.5840000 -13.2070000  -3.4730000  -5.0210000 -15.1010000  -2.6540000
  -4.2040000 -15.7820000  -2.8920000  -5.8720000 -15.7800000  -2.6000000
  -6.5700000 -13.6680000  -4.0180000  -7.0750000 -13.3520000  -3.1050000
  -6.6410000 -12.8700000  -4.7580000  -7.1430000 -14.5240000  -4.3740000
  -4.7400000 -14.5470000  -1.2680000  -3.8210000 -13.9610000  -1.2500000
  -5.5360000 -13.8460000  -1.0140000  -4.6300000 -15.2610000  -0.4520000
  -3.8860000 -12.7200000  -6.4700000  -3.2110000 -12.5830000  -5.7310000
  -3.5340000 -11.9660000  -7.6670000  -4.3250000 -12.0910000  -8.4060000
  -2.2730000 -12.4810000  -8.3020000  -1.5590000 -13.3540000  -7.7580000
  -3.3690000 -10.4620000  -7.2510000  -3.4020000  -9.8390000  -8.1450000
  -2.3870000 -10.3350000  -6.7950000  -4.3610000  -9.8170000  -6.2760000
  -4.3970000 -10.4900000  -5.4200000  -3.8220000  -8.5040000  -5.7430000
  -4.6040000  -8.1300000  -5.0820000  -2.9430000  -8.7520000  -5.1470000
  -3.5790000  -7.9150000  -6.6280000  -5.7490000  -9.6270000  -6.8610000
  -5.9970000 -10.5040000  -7.4590000  -5.7850000  -8.7170000  -7.4610000
  -6.4410000  -9.5400000  -6.0240000  -1.9910000 -12.0560000  -9.5880000
  -2.6400000 -11.4040000 -10.0040000  -0.5850000 -12.1350000 -10.1220000
  -0.1420000 -13.1180000  -9.9630000   0.2810000 -11.0050000  -9.5080000
  -0.1800000 -10.1230000  -8.7710000  -0.5690000 -11.9570000 -11.6250000
   0.4520000 -11.9900000 -12.0060000  -1.1290000 -12.7870000 -12.0550000
  -1.1590000 -10.6700000 -12.1630000  -2.2420000 -10.6380000 -12.7650000
  -0.4870000  -9.6300000 -11.9040000   1.5900000 -11.1260000  -9.6920000
   1.9890000 -11.8860000 -10.2230000   2.5520000 -10.2820000  -8.9550000
   2.3460000 -10.3470000  -7.8860000   2.3870000  -8.7860000  -9.2220000
   2.2650000  -7.9720000  -8.2960000   4.0250000 -10.7460000  -9.2060000
   4.6850000 -10.0750000  -8.6570000   4.1970000 -10.7130000 -10.2820000
   4.4130000 -12.1700000  -8.7470000   3.5690000 -12.8310000  -8.0920000
   5.5430000 -12.6280000  -8.9490000   2.3100000  -8.3820000 -10.4990000
   2.3240000  -9.1360000 -11.1710000   2.1680000  -7.0110000 -10.8900000
   3.0740000  -6.5100000 -10.5510000   0.8850000  -6.4140000 -10.3370000
   0.8800000  -5.2640000  -9.8760000   2.2340000  -6.8280000 -12.3920000
   2.9600000  -7.5050000 -12.8420000   2.7060000  -5.8630000 -12.5790000
   1.1030000  -7.1330000 -13.1810000   1.1410000  -6.4490000 -13.8530000
  -0.2880000  -7.1630000 -10.3430000  -0.4560000  -8.0400000 -10.8150000
  -1.5580000  -6.7060000  -9.7780000  -1.8860000  -5.7000000 -10.0420000
  -1.4640000  -6.6130000  -8.2100000  -1.9850000  -5.6160000  -7.6500000
  -2.6430000  -7.6960000 -10.1200000  -2.3290000  -8.6240000  -9.6430000
  -2.7660000  -7.9150000 -11.5040000  -2.0080000  -8.4160000 -11.8120000
  -4.0210000  -7.1130000  -9.6770000  -4.5050000  -7.9090000  -9.1120000
  -3.9730000  -6.2500000  -9.0120000  -4.6320000  -6.9220000 -10.5590000
  -0.7000000  -7.4340000  -7.5100000  -0.2760000  -8.1920000  -8.0270000
  -0.4330000  -7.3650000  -6.0610000  -1.3560000  -7.3480000  -5.4820000
   0.2920000  -6.0780000  -5.6740000  -0.0490000  -5.4160000  -4.6790000
   0.2890000  -8.6010000  -5.6180000  -0.4500000  -9.3710000  -5.3950000
   0.8580000  -9.0010000  -6.4570000   1.2060000  -8.4970000  -4.4640000
   2.6270000  -8.6830000  -4.5750000   3.0200000  -8.8630000  -5.5640000
   0.6420000  -8.1380000  -3.2340000  -0.3920000  -7.8350000  -3.1510000
   3.4600000  -8.4630000  -3.4580000   4.5140000  -8.6880000  -3.3940000
   1.3900000  -7.9520000  -2.0860000   0.9340000  -7.7480000  -1.1290000
   2.8060000  -8.0810000  -2.2400000   3.5190000  -8.0620000  -1.0920000
   3.3950000  -8.8950000  -0.6330000   1.3410000  -5.7250000  -6.4160000
   1.6760000  -6.4240000  -7.0630000   2.2050000  -4.5180000  -6.3100000
   2.6450000  -4.4820000  -5.3130000   1.4980000  -3.2300000  -6.6680000
   1.6630000  -2.2350000  -5.9700000   3.4390000  -4.7230000  -7.2680000
   3.0350000  -4.8190000  -8.2760000   3.9980000  -3.7890000  -7.2100000
   4.3830000  -5.8380000  -6.7820000   3.8090000  -6.7540000  -6.6420000
   4.6780000  -5.5250000  -5.7810000   5.5770000  -6.0410000  -7.7740000
   5.1790000  -6.0610000  -8.7890000   6.2840000  -5.2190000  -7.6670000
   6.2020000  -7.4070000  -7.3910000   6.6190000  -7.3560000  -6.3850000
   5.4370000  -8.1840000  -7.3850000   7.3320000  -7.8190000  -8.2970000
   7.5110000  -8.8110000  -8.3620000   8.1870000  -7.3740000  -7.9980000
   7.1630000  -7.6030000  -9.2690000   0.6590000  -3.3880000  -7.6820000
   0.6880000  -4.2530000  -8.2010000  -0.2030000  -2.2870000  -8.1230000
   0.4140000  -1.4110000  -8.3240000  -1.1010000  -1.7820000  -7.0240000
  -1.1850000  -0.5900000  -6.6820000  -0.9300000  -2.6190000  -9.4360000
  -1.6480000  -3.4320000  -9.3300000  -1.4370000  -1.7270000  -9.8050000
  -0.1450000  -2.8300000 -10.1620000  -1.6320000  -2.7950000  -6.3130000
  -1.5710000  -3.7540000  -6.6220000  -2.4420000  -2.4390000  -5.1590000
  -3.1210000  -1.6280000  -5.4240000  -1.6190000  -1.9690000  -3.8950000
  -1.9040000  -0.9220000  -3.3570000  -3.4070000  -3.5880000  -4.7630000
  -2.7940000  -4.4880000  -4.7220000  -4.3150000  -3.8320000  -5.9300000
  -3.7240000  -3.8950000  -6.8440000  -5.1770000  -3.1660000  -5.9400000
  -4.0830000  -3.5370000  -3.3840000  -3.3440000  -3.4740000  -2.5850000
  -4.7650000  -4.3570000  -3.1580000  -4.5140000  -2.5370000  -3.3670000
  -4.9240000  -5.3150000  -5.9100000  -5.8030000  -5.3370000  -5.2650000
  -4.1350000  -5.9520000  -5.5100000  -5.2860000  -5.5690000  -6.9060000
  -0.5940000  -2.6720000  -3.5560000  -0.2820000  -3.4270000  -4.1510000
   0.3810000  -2.3550000  -2.4320000  -0.0990000  -2.4510000  -1.4580000
   0.9960000  -0.9210000  -2.5890000   1.0400000  -0.1390000  -1.6420000
   1.4420000  -3.4430000  -2.5130000   2.2160000  -3.2800000  -1.7630000
   1.8880000  -3.5450000  -3.5030000   0.8100000  -4.6640000  -2.1890000
   0.5470000  -5.0820000  -3.0120000   1.3520000  -0.5420000  -3.8480000
   1.1770000  -1.1470000  -4.6380000   1.9880000   0.7320000  -4.0770000
   2.6680000   0.8790000  -3.2390000   1.0310000   1.9210000  -4.0820000
   1.4760000   3.0530000  -3.8770000   2.9200000   0.6960000  -5.2570000
   3.7610000   0.0590000  -4.9860000   3.2570000   1.7290000  -5.3450000
   2.3390000   0.2990000  -6.5650000   2.2150000  -0.6530000  -6.5460000
  -0.2410000   1.7030000  -4.2800000  -0.5150000   0.7850000  -4.6010000
  -1.3650000   2.6130000  -3.9560000  -1.0940000   3.5300000  -4.4790000
  -1.5860000   2.8160000  -2.4740000  -1.3530000   3.9530000  -1.9840000
  -2.6430000   2.1490000  -4.6730000  -2.6220000   2.4540000  -5.7190000
  -2.6360000   1.0620000  -4.6050000  -3.9450000   2.4850000  -4.0670000
  -4.5530000   3.7320000  -4.3170000  -3.9770000   4.3970000  -4.9440000
  -4.6670000   1.5480000  -3.3270000  -4.2910000   0.5450000  -3.1860000
  -5.8790000   4.0160000  -3.8400000  -6.4010000   4.9190000  -4.1210000
  -5.9740000   1.8800000  -2.7420000  -6.5580000   1.1160000  -2.2500000
  -6.5350000   3.1140000  -2.9800000  -7.4800000   3.4380000  -2.5680000
  -1.8660000   1.7330000  -1.7370000  -1.8110000   0.8400000  -2.2050000
  -1.8280000   1.8440000  -0.2900000  -2.6200000   2.5530000  -0.0490000
  -0.6300000   2.5060000   0.4120000  -0.7460000   3.3160000   1.3280000
  -2.1650000   0.5220000   0.3240000  -1.3650000  -0.1630000   0.0440000
  -2.0220000   0.6620000   1.3960000  -3.5620000   0.0550000  -0.0260000
  -3.9190000  -0.9780000  -0.8050000  -3.1590000  -1.5930000  -1.2640000
  -4.8920000   0.6510000   0.3450000  -5.2670000  -1.1100000  -0.8720000
  -5.7750000  -1.6900000  -1.5250000  -5.9500000  -0.1960000  -0.0930000
  -5.3110000   1.7940000   1.0830000  -4.5190000   2.3570000   1.5530000
  -7.2750000   0.1300000   0.0340000  -8.0410000  -0.5230000  -0.3580000
  -6.7140000   2.0760000   1.2460000  -7.0560000   2.8870000   1.8720000
  -7.7330000   1.2910000   0.6700000  -8.7700000   1.5560000   0.8160000
   0.5850000   2.2630000  -0.1230000   0.6300000   1.6630000  -0.9330000
   1.8850000   2.7730000   0.3450000   2.0670000   2.5640000   1.3990000
   1.9550000   4.3300000   0.2990000   2.1050000   5.0910000   1.2530000
   3.0370000   2.2080000  -0.5240000   3.1180000   1.1230000  -0.4620000
   2.7400000   2.3770000  -1.5590000   4.3760000   2.9250000  -0.3130000
   4.5730000   3.1890000   0.7260000   4.3200000   3.8190000  -0.9340000
   5.4950000   1.9140000  -0.7360000   5.4250000   1.2550000  -1.8080000
   6.5030000   2.0140000  -0.0010000   1.6910000   4.8250000  -0.9080000
   1.5100000   4.1790000  -1.6620000   1.6740000   6.2340000  -1.2410000
   2.5690000   6.6670000  -0.7960000   0.4820000   6.9660000  -0.5650000
   0.7110000   8.0460000   0.0030000   1.6880000   6.5290000  -2.7510000
   0.7620000   6.2200000  -3.2360000   1.6390000   7.6150000  -2.8270000
   2.9410000   6.0750000  -3.5450000   2.8980000   4.9910000  -3.4330000
   3.8480000   6.5320000  -3.1490000   2.8880000   6.3470000  -5.0860000
   3.3610000   7.2720000  -5.4150000   1.8820000   6.5080000  -5.4720000
   3.5600000   5.1770000  -5.8570000   2.7830000   4.4130000  -5.8980000
   4.3520000   4.8070000  -5.2070000   4.0290000   5.6580000  -7.2140000
   3.2790000   5.8220000  -7.8700000   4.6020000   4.9480000  -7.6470000
   4.5490000   6.5210000  -7.1500000  -0.6820000   6.3550000  -0.2520000
  -0.8450000   5.5150000  -0.7890000  -1.7870000   6.8850000   0.6240000
  -1.9960000   7.8810000   0.2340000  -1.3890000   7.0820000   2.1060000
  -1.8560000   7.9360000   2.8300000  -3.0810000   6.0390000   0.5490000
  -3.7140000   6.2810000   1.4030000  -2.9570000   4.9570000   0.5820000
  -3.7270000   6.4250000  -0.8400000  -3.0130000   6.1370000  -1.6120000
  -3.8500000   7.5050000  -0.9200000  -5.1190000   5.6970000  -1.0570000
  -5.4780000   5.7450000  -2.0850000  -4.9050000   4.6330000  -0.9610000
  -6.1430000   6.2320000  -0.0360000  -6.3760000   5.7590000   0.8250000
  -6.7850000   7.3260000  -0.1750000  -6.5500000   8.1670000  -1.1420000
  -7.0060000   9.0680000  -1.1460000  -5.6660000   7.9740000  -1.5900000
  -7.6670000   7.5950000   0.7320000  -7.9570000   6.9420000   1.4460000
  -8.3180000   8.3360000   0.5140000  -0.5400000   6.1770000   2.5770000
  -0.1700000   5.5220000   1.9040000  -0.1420000   5.9260000   3.9870000
  -0.9430000   6.3430000   4.5970000   1.0220000   6.9240000   4.2830000
   0.9070000   7.6010000   5.2700000   0.0790000   4.4120000   4.1640000
   0.4970000   4.0430000   3.2270000  -1.3110000   3.7820000   4.3840000
  -1.9350000   3.9910000   3.5150000  -1.8050000   4.2750000   5.2200000
   1.0180000   4.0180000   5.2720000   1.2240000   2.9620000   5.0930000
   0.5110000   4.1300000   6.2300000   1.9600000   4.5670000   5.2660000
  -1.4270000   2.2610000   4.4280000  -0.7610000   1.8420000   3.6740000
  -2.3760000   1.8370000   4.1010000  -1.1170000   1.9110000   5.4130000
   2.0090000   7.0370000   3.4270000   2.0040000   6.4580000   2.5990000
   3.0380000   8.0520000   3.5010000   3.4290000   7.8370000   4.4950000
   2.4210000   9.4300000   3.3000000   2.7300000  10.3440000   4.0670000
   4.1270000   7.7790000   2.5060000   3.7540000   7.6190000   1.4940000
   4.8250000   8.6170000   2.5010000   4.9870000   6.5280000   2.8250000
   4.3010000   5.7000000   3.0060000   5.5020000   6.7800000   3.7520000
   5.9080000   6.2190000   1.6060000   5.2880000   5.9870000   0.7400000
   6.3940000   7.1490000   1.3110000   6.8590000   5.0300000   1.8910000
   7.5400000   5.3200000   2.6920000   6.2770000   4.1510000   2.1680000
   7.5860000   4.6270000   0.6520000   8.5060000   4.2690000   0.8680000
   7.0790000   3.8840000   0.1940000   7.7900000   5.3530000  -0.0210000
   1.4790000   9.6680000   2.3600000   1.1520000   8.8910000   1.8040000
   0.8240000  10.9870000   2.2010000   1.6270000  11.7080000   2.3520000
  -0.2670000  11.2940000   3.2450000  -0.8730000  12.3780000   3.2100000
   0.3210000  11.1370000   0.7530000   1.1370000  10.8320000   0.0980000
   0.0830000  12.1890000   0.5960000  -0.8280000  10.3180000   0.5480000
  -0.4240000   9.5360000   0.1650000  -0.5130000  10.3740000   4.2660000
  -0.0660000   9.4740000   4.1670000  -1.1780000  10.5390000   5.5440000
  -1.9620000  11.2940000   5.4820000  -0.1430000  11.1260000   6.6120000
  -0.5760000  11.9560000   7.4030000  -1.9010000   9.3180000   6.0220000
  -1.2520000   8.4440000   5.9700000  -2.0460000   9.4210000   7.0970000
  -3.3130000   9.0750000   5.4110000  -3.7000000   9.8490000   4.4610000
  -4.0570000   8.1070000   5.7910000   1.1630000  10.8440000   6.6640000
   1.5480000  10.1090000   6.0870000   2.1530000  11.4200000   7.6300000
   1.8570000  11.0010000   8.5920000   2.1560000  12.9620000   7.8400000
   2.3850000  13.6870000   6.9160000   3.6040000  10.9760000   7.3130000
   3.8310000  11.2490000   6.2820000   3.7350000   9.4590000   7.4940000
   2.8830000   8.9120000   7.0890000   3.8180000   9.2170000   8.5540000
   4.7000000  11.6260000   8.2130000   4.7370000  12.6820000   7.9480000
   5.6650000  11.2080000   7.9240000   4.5360000  11.4280000   9.2730000
   4.9660000   8.9130000   6.7130000   5.0740000   7.8360000   6.8410000
   4.7940000   9.1260000   5.6580000   5.9110000   9.3620000   7.0180000
   1.8360000  13.3830000   9.1010000   1.6690000  12.6430000   9.7670000
   1.6530000  14.8470000   9.5030000   1.8570000  15.4850000   8.6430000
   2.7950000  15.2030000  10.4640000   3.2660000  14.4290000  11.2860000
   0.2820000  15.1300000  10.2180000   0.2420000  16.1470000  10.6070000
   0.2300000  14.4140000  11.0390000  -0.8980000  14.9060000   9.2970000
  -0.7450000  13.9250000   8.8490000  -0.7570000  15.5910000   8.4610000
  -2.2930000  14.9540000   9.8880000  -2.4470000  15.8180000  10.5340000
  -3.0800000  15.1170000   9.1520000  -2.5130000  13.6810000  10.6780000
  -2.5240000  12.8400000   9.9850000  -1.8240000  13.6180000  11.5200000
  -3.9110000  13.6390000  11.2690000  -4.0920000  14.4590000  11.8310000
  -3.9870000  12.8870000  11.9390000  -4.6410000  13.5500000  10.5760000
   3.1450000  16.4690000  10.3840000   2.6310000  17.0530000   9.7390000
   4.1330000  16.9920000  11.3430000   5.0340000  16.3790000  11.3440000
   3.5670000  16.9360000  12.7680000   4.3190000  16.7810000  13.7140000
   4.4950000  18.4780000  10.9990000   3.6150000  19.0960000  10.8220000
   4.8950000  18.8510000  11.9420000   5.4130000  18.7540000   9.7820000
   5.7220000  19.7900000   9.6450000   4.7730000  18.4680000   8.9470000
   6.5690000  17.8040000   9.6890000   7.4740000  17.9320000  10.5420000
   6.7470000  17.0730000   8.6560000   2.2260000  16.9000000  12.8960000
   1.6970000  17.1220000  12.0640000   1.5120000  16.4360000  14.1170000
   0.4550000  16.5430000  13.8740000   1.7520000  17.1220000  14.9290000
   1.5890000  14.9950000  14.6040000   1.3820000  14.7640000  15.8110000
   1.7650000  14.0420000  13.7020000   1.9330000  14.3020000  12.7410000
   1.8890000  12.6630000  14.1520000   1.0550000  12.5510000  14.8450000
   3.2200000  12.3730000  14.9040000   3.3630000  11.2660000  15.4740000
   1.6910000  11.6510000  12.9650000   2.4440000  11.7940000  12.1900000
   1.9020000  10.6500000  13.3410000   0.2760000  11.7340000  12.3410000
  -0.7270000  11.6860000  13.0570000   0.1540000  11.8080000  11.1050000
   4.0640000  13.4220000  15.1180000   3.8080000  14.3310000  14.7590000
   5.2950000  13.3310000  15.8870000   5.4040000  12.2840000  16.1680000
   5.1980000  13.9820000  17.2140000   5.3860000  15.1930000  17.3360000
   6.4470000  14.0300000  15.1600000   6.1160000  15.0260000  14.8670000
   7.3340000  14.2260000  15.7630000   6.9590000  13.2950000  13.9140000
   8.0070000  12.3010000  14.0660000   8.5460000  12.0890000  14.9780000
   6.3920000  13.5010000  12.6310000   5.6070000  14.2350000  12.5260000
   8.4240000  11.5320000  12.9170000   9.2640000  10.8650000  13.0380000
   6.7090000  12.6620000  11.5580000   6.1410000  12.7000000  10.6400000
   7.7870000  11.7280000  11.6570000   7.9920000  11.0720000  10.8230000
   4.8910000  13.2370000  18.1770000   5.1390000  -1.1770000   2.0400000
   4.5220000  -2.4630000   2.1410000   3.4040000  -2.7580000   1.4390000
   2.4740000  -1.7880000   1.0860000   1.3450000  -2.1480000   0.3930000
   1.1160000  -3.4590000   0.0450000  -0.1000000  -3.8990000  -0.6900000
   0.0680000  -4.5110000  -1.7140000  -1.4900000  -3.7030000  -0.2320000
  -1.7210000  -2.9160000   0.8960000  -3.0030000  -2.6890000   1.3440000
  -4.0830000  -3.2400000   0.6850000  -3.8640000  -4.0100000  -0.4400000
  -2.5750000  -4.2260000  -0.8920000   2.0570000  -4.4230000   0.3800000
   1.8330000  -5.7120000   0.0070000   3.1910000  -4.0670000   1.0840000
   5.3288988  -0.7811979   3.0486026   6.0911379  -1.2687717   1.4968505
   4.4716035  -0.4917478   1.4968505   2.6416513  -0.7361133   1.3606405
   0.6127173  -1.3768189   0.1118564  -0.8700747  -2.4719873   1.4333815
  -3.1675529  -2.0637243   2.2339172  -5.1057927  -3.0678999   1.0514377
  -4.7158792  -4.4521717  -0.9773881  -2.4155028  -4.8287324  -1.7982419
   2.4913505  -6.4150672   0.2358473   3.9269012  -4.8360536   1.3614994
