
  421  0.0000000e+00
  -5.9770000   3.9140000   6.6420000  -5.9980000   3.6210000   5.6750000
  -6.5180000   4.7530000   6.7960000  -5.0400000   4.2430000   6.8260000
  -6.1760000   2.7440000   7.5570000  -5.9560000   3.0490000   8.5800000
  -5.1530000   1.6760000   7.2010000  -4.7010000   1.5470000   6.0970000
  -7.6020000   2.2380000   7.4890000  -7.4680000   1.1560000   7.4750000
  -8.0750000   2.5140000   8.4310000  -8.4720000   2.6160000   6.2750000
  -8.5850000   1.8060000   5.1850000  -7.9710000   0.9180000   5.1520000
  -9.3380000   3.7280000   6.4790000  -9.4170000   4.3560000   7.3550000
  -9.4940000   2.1440000   4.1610000  -9.6960000   1.4570000   3.3530000
 -10.1720000   4.0600000   5.4320000 -10.8320000   4.9080000   5.5440000
 -10.2940000   3.2600000   4.3430000 -11.2490000   3.6070000   3.4860000
 -11.5730000   4.5030000   3.6060000  -4.8070000   0.8690000   8.2040000
  -5.2370000   0.9570000   9.1140000  -3.8170000  -0.2410000   8.0270000
  -4.0580000  -1.1230000   8.6210000  -3.7280000  -0.4920000   6.9700000
  -2.4600000   0.2490000   8.5480000  -1.4570000  -0.1300000   8.0000000
  -2.5650000   1.0550000   9.6440000  -3.4830000   1.0470000  10.0660000
  -1.5350000   1.8910000  10.1380000  -0.6130000   1.3130000  10.2160000
  -1.8850000   2.2170000  11.1170000  -1.0380000   3.0880000   9.3070000
  -1.7080000   3.4960000   8.4000000   0.1670000   3.6470000   9.4720000
   0.8080000   3.2870000  10.1640000   0.6620000   4.7240000   8.6050000
  -0.1390000   5.4630000   8.6120000   0.9410000   4.2310000   7.1280000
   0.9990000   5.0210000   6.1970000   1.9890000   5.2170000   9.0640000
   2.2220000   6.0120000   8.3560000   1.9090000   5.5400000  10.1020000
   3.1330000   4.1330000   8.9930000   2.8360000   2.9470000   9.0110000
   4.3970000   4.3310000   8.9770000   1.1340000   2.9380000   6.9620000
   1.3660000   2.3730000   7.7670000   1.3520000   2.4760000   5.6110000
   2.2680000   2.9870000   5.3160000   1.5350000   1.4010000   5.6100000
   0.2390000   2.6910000   4.6550000   0.4760000   2.4060000   3.4730000
  -0.9030000   3.2820000   5.0290000  -1.1300000   3.4210000   6.0040000
  -1.9210000   3.8430000   4.1560000  -2.3790000   2.9500000   3.7310000
  -1.4650000   4.7310000   3.0240000  -2.0880000   4.7090000   1.9830000
  -2.8020000   4.6810000   5.0160000  -2.8610000   4.0940000   5.9330000
  -2.2470000   5.5620000   5.3380000  -4.2360000   4.9960000   4.5420000
  -4.9860000   4.2450000   3.5780000  -4.4340000   3.4150000   3.1630000
  -4.8650000   6.2000000   5.0110000  -4.4130000   6.7950000   5.7910000
  -6.2710000   4.4960000   3.0860000  -6.7990000   3.9440000   2.3220000
  -6.1450000   6.6230000   4.5400000  -6.6450000   7.5640000   4.7120000
  -6.8270000   5.7200000   3.6620000  -7.8070000   6.0020000   3.3060000
  -0.4110000   5.4500000   3.2680000   0.0240000   5.3180000   4.1700000
   0.2550000   6.2760000   2.3020000   0.7940000   7.0420000   2.8610000
  -0.3970000   6.6210000   1.5000000   1.4510000   5.5530000   1.7460000
   1.5280000   5.2700000   0.5710000   2.4960000   5.4490000   2.5800000
   2.3550000   5.9220000   3.4610000   3.8420000   4.9330000   2.2480000
   4.0710000   5.6220000   1.4340000   3.8410000   3.5060000   1.6060000
   4.6300000   3.2400000   0.6860000   4.8610000   5.1150000   3.4330000
   4.7670000   6.1290000   3.8210000   4.7210000   4.3060000   4.1500000
   6.3690000   5.0230000   2.9220000   6.6180000   3.9840000   2.7060000
   6.4230000   5.5910000   1.9940000   7.4310000   5.6290000   3.7910000
   7.1570000   6.6830000   3.7710000   7.4580000   5.2650000   4.8180000
   8.8980000   5.4990000   3.2290000   9.3270000   4.5410000   3.5250000
   8.9760000   5.4290000   2.1440000   9.7120000   6.7350000   3.6310000
   9.3160000   7.5850000   3.2570000  10.6500000   6.7320000   3.2570000
   9.6900000   6.9930000   4.6070000   2.9220000   2.6620000   2.0440000
   2.3380000   2.9920000   2.7990000   2.7870000   1.3030000   1.7430000
   3.6560000   0.7130000   1.4510000   2.4050000   0.8530000   2.6590000
   1.7790000   1.0700000   0.5520000   1.6580000  -0.0550000   0.0400000
   1.0530000   2.1380000   0.0360000   1.0710000   3.0030000   0.5570000
  -0.0020000   2.0670000  -0.9900000  -0.2210000   1.0030000  -1.0740000
  -0.9010000   2.5420000  -0.5970000   0.2440000   2.7900000  -2.2900000
  -0.5020000   2.6730000  -3.2790000   1.2430000   3.6500000  -2.4170000
   1.9910000   3.6060000  -1.7400000   1.3690000   4.6480000  -3.5340000
   0.5140000   5.3100000  -3.3960000   2.1440000   5.3960000  -3.3670000
   1.3970000   4.1510000  -5.0060000   1.9870000   3.0660000  -5.2460000
   0.8270000   4.8700000  -5.9970000   0.2350000   5.6220000  -5.6730000
   0.5010000   4.3330000  -7.3430000   0.0690000   3.3430000  -7.1950000
   1.6700000   4.1040000  -8.3650000   1.5200000   3.2820000  -9.2980000
  -0.6110000   5.1840000  -7.8920000  -0.8960000   4.8330000  -8.8830000
  -0.2180000   6.2010000  -7.9280000  -1.9370000   5.1000000  -7.0620000
  -1.8310000   5.4060000  -6.0210000  -2.9660000   6.0880000  -7.6080000
  -3.1040000   5.9390000  -8.6790000  -3.8880000   6.0280000  -7.0300000
  -2.5260000   7.0850000  -7.5720000  -2.6280000   3.7430000  -7.0110000
  -3.5580000   3.8110000  -6.4460000  -2.0440000   3.0280000  -6.4310000
  -2.8460000   3.3760000  -8.0140000   2.8100000   4.7030000  -8.0220000
   2.7730000   5.3030000  -7.2110000   4.1620000   4.4450000  -8.6640000
   4.0280000   3.8630000  -9.5760000   4.5120000   5.4660000  -8.8150000
   5.1110000   3.6500000  -7.7790000   6.2210000   3.3800000  -8.2580000
   4.7220000   3.1810000  -6.5530000   3.7830000   3.4420000  -6.2890000
   5.3430000   2.0270000  -5.7850000   4.5690000   1.8300000  -5.0430000
   5.5660000   1.1800000  -6.4340000   6.6380000   2.2080000  -4.9990000
   6.8000000   3.1990000  -4.2420000   7.4890000   1.1940000  -4.8470000
   7.3470000   0.3090000  -5.3130000   8.7150000   1.2220000  -4.0110000
   8.4970000   1.6980000  -3.0550000   9.3710000   1.8440000  -4.6190000
   9.3300000  -0.1690000  -3.8510000   9.0270000  -1.0610000  -4.6300000
   9.9510000  -0.3780000  -2.6660000  10.1230000   0.4300000  -2.0840000
  10.5790000  -1.6200000  -2.2700000  10.9800000  -2.1980000  -3.1030000
   9.5400000  -2.4420000  -1.5640000   9.5180000  -2.5690000  -0.3900000
  11.8830000  -1.1870000  -1.5620000  11.5500000  -0.9670000  -0.5480000
  12.2640000  -0.3270000  -2.1120000  12.9260000  -2.2790000  -1.5550000
  12.6050000  -3.1290000  -0.9540000  13.1960000  -2.5550000  -2.5740000
  14.1320000  -1.8120000  -0.8400000  14.7270000  -2.7000000  -0.6280000
  13.8510000  -1.4740000   0.1570000  14.8220000  -0.7590000  -1.7580000
  14.0550000  -0.1860000  -2.2810000  15.4460000  -1.3340000  -2.4420000
  15.6930000   0.1090000  -0.9200000  15.7530000  -0.3090000  -0.0020000
  16.5780000   0.0660000  -1.4040000  15.2190000   1.0000000  -0.9570000
   8.5440000  -2.9620000  -2.3770000   8.5060000  -2.7440000  -3.3630000
   7.4010000  -3.8010000  -1.8460000   7.7800000  -4.7120000  -1.3850000
   6.7540000  -3.3010000  -1.1250000   6.4150000  -4.2450000  -2.9480000
   6.0520000  -3.4680000  -3.8390000   5.8490000  -5.4520000  -2.8230000
   6.0900000  -5.9730000  -1.9920000   5.2870000  -6.1840000  -3.9900000
   5.4740000  -7.2510000  -3.8670000   5.9030000  -5.8480000  -4.8240000
   3.8260000  -5.9410000  -4.2530000   3.3000000  -6.3560000  -5.2610000
   3.1380000  -5.2110000  -3.3330000   3.6860000  -4.8370000  -2.5710000
   1.8520000  -4.5700000  -3.6290000   1.7900000  -4.0840000  -4.6020000
   1.8920000  -3.7870000  -2.8720000   0.6280000  -5.4580000  -3.3760000
   0.7730000  -6.6630000  -3.1330000  -0.5220000  -4.7830000  -3.3680000
  -0.4440000  -3.7880000  -3.5200000  -1.8000000  -5.3160000  -3.0460000
  -1.7270000  -6.3660000  -2.7620000  -2.0710000  -4.7370000  -2.1630000
  -2.9450000  -5.1880000  -4.0720000  -2.7270000  -5.2890000  -5.2820000
  -4.1860000  -5.0290000  -3.6370000  -4.4290000  -5.1630000  -2.6650000
  -5.3220000  -4.7940000  -4.5370000  -5.2510000  -5.5690000  -5.3000000
  -5.3710000  -3.5260000  -5.4060000  -5.0350000  -2.4440000  -4.8430000
  -6.6430000  -5.0050000  -3.7440000  -7.4860000  -4.7600000  -4.3910000
  -6.6930000  -4.2330000  -2.9770000  -6.8940000  -6.3550000  -3.0480000
  -6.8880000  -7.1190000  -3.8260000  -5.7800000  -6.7870000  -2.0480000
  -6.2010000  -7.5930000  -1.4460000  -4.7980000  -7.0700000  -2.4290000
  -5.7470000  -6.0420000  -1.2520000  -8.3070000  -6.2910000  -2.4240000
  -8.3950000  -5.4250000  -1.7690000  -9.0550000  -6.3210000  -3.2160000
  -8.3650000  -7.2050000  -1.8330000  -5.9030000  -3.7130000  -6.6450000
  -6.0830000  -4.6470000  -6.9840000  -6.0790000  -2.6750000  -7.6150000
  -6.3350000  -3.1590000  -8.5580000  -6.8590000  -2.0450000  -7.1870000
  -4.8510000  -1.8110000  -7.8170000  -4.9140000  -0.6250000  -8.1800000
  -3.6590000  -2.4740000  -7.7320000  -3.6690000  -3.4580000  -7.5030000
  -2.3930000  -1.9220000  -8.1860000  -2.3970000  -1.3180000  -9.0940000
  -1.7390000  -2.7430000  -8.4780000  -1.7150000  -1.0700000  -7.1100000
  -0.6010000  -0.5960000  -7.3500000  -2.3530000  -0.8380000  -5.9510000
  -3.1850000  -1.3660000  -5.7300000  -1.7700000  -0.1210000  -4.7680000
  -1.4470000   0.8530000  -5.1370000  -0.5140000  -0.8570000  -4.4010000
  -0.6250000  -2.0460000  -4.0840000  -2.8240000   0.1480000  -3.6230000
  -3.3270000  -0.8100000  -3.4930000  -2.3230000   0.4170000  -2.6930000
  -3.7150000   1.2880000  -3.9040000  -4.5070000   1.4750000  -4.9940000
  -4.5980000   0.7310000  -5.7710000  -4.0800000   2.4100000  -3.0090000
  -5.3460000   2.4710000  -4.8070000  -6.0220000   2.6620000  -5.5320000
  -4.9040000   3.2650000  -3.7790000  -3.6650000   2.8360000  -1.6990000
  -2.9700000   2.2730000  -1.0950000  -5.2410000   4.5260000  -3.3850000
  -5.9650000   5.1370000  -3.9040000  -3.8770000   4.1500000  -1.3270000
  -3.4240000   4.5260000  -0.4210000  -4.7070000   5.0100000  -2.1950000
  -4.9170000   6.0450000  -1.9690000   0.7090000  -0.2800000  -4.5140000
   0.8560000   0.6010000  -4.9850000   1.8440000  -1.0760000  -3.9570000
   2.0920000  -1.7960000  -4.7360000   1.5290000  -1.5120000  -3.0090000
   3.0290000  -0.1800000  -3.7190000   3.8820000  -0.1120000  -4.6190000
   3.1500000   0.3920000  -2.5490000   2.3970000   0.1960000  -1.9050000
   4.3180000   1.1030000  -2.0840000   3.9440000   1.7420000  -1.2840000
   4.7030000   1.8180000  -2.8100000   5.5890000   0.4350000  -1.3160000
   5.5800000  -0.8110000  -1.1840000   6.3960000   1.2790000  -0.7360000
   6.0240000   2.2040000  -0.5690000   7.6170000   0.8990000  -0.0450000
   8.2790000   0.3460000  -0.7120000   7.2900000   0.1240000   1.2170000
   6.5770000   0.6590000   2.0500000   8.4190000   2.1790000   0.1710000
   7.7600000   2.8700000   0.6960000   8.6200000   2.6540000  -0.7890000
   9.6980000   2.0200000   0.9800000   9.9370000   3.0370000   1.2900000
   9.5730000   1.3480000   1.8290000  10.9110000   1.5960000   0.1610000
  10.8930000   1.6700000  -1.0480000  11.8920000   1.1520000   0.8160000
   7.8440000  -1.0860000   1.4040000   8.3880000  -1.4600000   0.6400000
   7.3750000  -1.9590000   2.4950000   7.3540000  -1.3420000   3.3930000
   8.1650000  -2.6840000   2.6920000   6.0560000  -2.8090000   2.3750000
   5.7110000  -3.4690000   3.3090000   5.3070000  -2.7500000   1.3230000
   5.5730000  -2.1000000   0.5980000   4.0250000  -3.4560000   1.1520000
   3.4610000  -3.4130000   2.0830000   4.1570000  -4.9570000   0.7810000
   5.2610000  -5.4640000   0.5640000   3.1890000  -2.8010000   0.0830000
   3.0050000  -1.7950000   0.4580000   2.2500000  -3.3510000   0.0090000
   3.9300000  -2.8230000  -1.1200000   4.5540000  -2.0930000  -1.1150000
   3.0080000  -5.7020000   0.8720000   2.1120000  -5.2730000   1.0540000
   3.0320000  -7.1760000   0.8380000   2.9490000  -7.5780000  -0.1720000
   3.9230000  -7.5820000   1.3170000   1.7670000  -7.5520000   1.6550000
   0.8360000  -6.7730000   1.5390000   1.5470000  -8.5700000   2.4980000
   2.3540000  -9.1300000   2.7350000   0.4850000  -8.5810000   3.5310000
   0.7240000  -7.7050000   4.1330000   0.4880000  -9.5480000   4.0340000
  -1.0210000  -8.3870000   3.2500000  -1.7940000  -8.6630000   4.2130000
  -1.4690000  -8.0410000   1.9990000  -0.7660000  -8.0480000   1.2740000
  -2.7580000  -7.4660000   1.5550000  -3.5570000  -7.7860000   2.2240000
  -3.0320000  -7.9240000   0.1780000  -2.1690000  -7.7590000  -0.7180000
  -2.7950000  -5.9420000   1.4880000  -3.8130000  -5.5850000   1.3310000
  -2.2440000  -5.5900000   0.6150000  -2.2800000  -5.2500000   2.6740000
  -1.0470000  -4.6430000   2.6180000  -0.3450000  -4.7760000   1.8080000
  -2.8840000  -4.7690000   3.8640000  -0.7610000  -4.0440000   3.8010000
   0.1970000  -3.8050000   4.0140000  -1.8690000  -4.1410000   4.6820000
  -4.1570000  -4.9040000   4.4740000  -4.8580000  -5.6600000   4.1510000
  -2.0590000  -3.7090000   5.9850000  -1.2550000  -3.1310000   6.4180000
  -4.3380000  -4.3170000   5.7530000  -5.2660000  -4.3860000   6.3010000
  -3.3500000  -3.7700000   6.5040000  -3.6400000  -3.3390000   7.4510000
  -4.1670000  -8.5730000   0.0220000  -4.6420000  -8.8160000   0.8790000
  -4.1730000  -9.6700000  -0.9160000  -4.1380000  -9.2480000  -1.9200000
  -5.1130000 -10.2150000  -1.0050000  -3.0740000 -10.7500000  -0.5340000
  -3.0500000 -11.7200000  -1.2170000  -2.4930000 -10.6970000   0.6400000
  -2.8290000  -9.9350000   1.2110000  -1.6000000 -11.7720000   1.2200000
  -1.9090000 -12.7530000   0.8570000  -1.6390000 -11.8620000   2.7280000
  -0.9350000 -12.6770000   3.4060000  -0.1280000 -11.6250000   0.8640000
   0.5090000 -12.1650000   1.5640000   0.3650000 -10.6550000   0.9240000
   0.2030000 -12.0000000  -0.4770000   0.0370000 -11.2620000  -1.0690000
  -2.5090000 -11.2080000   3.3050000  -9.2750000   2.2190000  -1.2920000
  -9.4650000   1.7660000   0.1390000  -8.9540000   0.3640000   0.3510000
  -7.7160000   0.0760000  -0.4330000  -7.5800000  -1.3610000  -0.9110000
  -8.7870000  -1.7470000  -1.7450000  -9.2080000  -3.2040000  -1.5900000
  -7.4350000  -2.1990000   0.0970000  -6.9960000  -2.8300000   1.0680000
  -7.7810000  -3.2460000   1.8810000  -5.5270000  -2.9890000   1.1720000
  -4.8700000  -2.7440000   2.3030000  -3.3920000  -2.7900000   2.4400000
  -2.8020000  -2.2850000   3.5860000  -1.4170000  -2.2400000   3.7070000
  -0.6060000  -2.7540000   2.7170000   0.7710000  -2.7470000   2.8020000
   1.3500000  -2.5730000   4.0810000  -1.1960000  -3.3020000   1.6080000
  -2.5830000  -3.3190000   1.4680000  -8.8495571   3.2333455  -1.3020740
  -8.5904086   1.5291168  -1.8071659 -10.2468951   2.2238904  -1.8071659
  -8.9181754   2.4495381   0.8051520 -10.5420051   1.7765136   0.3624938
  -8.7329393   0.2281050   1.4199550  -9.7346303  -0.3295198   0.0051003
  -7.7107143   0.7317110  -1.3161846  -6.8710939   0.2555402   0.2481013
  -6.6729514  -1.4256257  -1.5299397  -9.6319974  -1.1092230  -1.4463030
  -8.5030846  -1.6083219  -2.7986415  -9.2799854  -3.4531275  -0.5210035
 -10.1867393  -3.3557629  -2.0685785  -8.4610461  -3.8544018  -2.0685785
  -4.9622310  -3.3195125   0.2878069  -5.4608490  -2.4906139   3.1955766
  -3.4336194  -1.9162940   4.4076525  -0.9635814  -1.7894590   4.6022231
   0.6021208  -2.7977513   4.8557022   2.2075303  -3.2531214   4.1908944
   1.6905524  -1.5328331   4.1908944  -0.5660373  -3.7347117   0.8168568
  -3.0332604  -3.7619089   0.5673906
