
  417  0.0000000e+00
  -2.1670000  13.4160000   2.8370000  -1.3900000  13.4540000   3.4810000
  -1.9800000  14.0450000   2.0690000  -3.0160000  13.6810000   3.3150000
  -2.3220000  12.0550000   2.4400000  -3.2670000  12.0170000   1.8980000
  -2.5330000  11.2060000   3.6790000  -1.5580000  11.0480000   4.4570000
  -1.0910000  11.5270000   1.5930000  -0.1970000  11.6300000   2.2090000
  -1.2290000  10.4690000   1.3690000  -0.8320000  12.2250000   0.3020000
  -1.6800000  11.8390000  -0.8070000  -2.4840000  11.1270000  -0.6950000
   0.2270000  13.2010000   0.1420000   0.9540000  13.4620000   0.8960000
  -1.3710000  12.2830000  -2.0820000  -2.0240000  11.9340000  -2.8680000
   0.4800000  13.5930000  -1.2100000   1.3820000  14.1390000  -1.4430000
  -0.3100000  13.1450000  -2.2290000  -0.0630000  13.3840000  -3.2530000
  -3.7120000  10.6800000   4.0230000  -3.8120000   9.7000000   5.1910000
  -3.4860000  10.2500000   6.0730000  -2.9760000   8.4180000   5.0870000
  -3.1630000   7.6400000   4.1780000  -5.2660000   9.2410000   5.2750000
  -5.3680000   8.2480000   4.8390000  -5.5830000   9.1250000   6.3110000
  -5.9780000  10.3180000   4.4500000  -6.3600000  11.1320000   5.0660000
  -6.7580000   9.9090000   3.8080000  -4.9990000  10.9180000   3.4670000
  -5.2010000  11.9450000   3.1640000  -5.1200000  10.2570000   2.6090000
  -2.1290000   8.1230000   6.0660000  -1.9640000   8.7590000   6.8340000
  -1.3600000   6.8360000   6.0630000  -0.6720000   6.9100000   5.2210000
  -2.1230000   5.5290000   5.8120000  -1.8410000   4.7340000   4.9680000
  -0.5950000   6.7220000   7.4010000  -1.2920000   6.7130000   8.2390000
  -0.0890000   7.6780000   7.5370000   0.4420000   5.6210000   7.5700000
   1.2740000   5.6250000   6.8650000   0.0090000   4.6220000   7.5160000
   0.9380000   5.7890000   8.9900000   0.1520000   5.7480000   9.7440000
   1.3700000   6.7850000   9.0860000   1.9720000   4.8160000   9.2390000
   2.9190000   5.0580000   8.9850000   1.8120000   3.5410000   9.3380000
   0.6290000   2.9740000   9.4430000   0.5040000   1.9720000   9.4180000
  -0.2350000   3.4970000   9.4340000   2.8150000   2.6560000   9.2980000
   3.7790000   2.9110000   9.4620000   2.5540000   1.7050000   9.5150000
  -3.2130000   5.4370000   6.5070000  -3.4200000   6.1350000   7.2060000
  -4.1990000   4.2650000   6.4270000  -3.5950000   3.3760000   6.6050000
  -4.7460000   4.0680000   5.0010000  -4.9420000   2.9110000   4.6160000
  -5.2310000   4.4590000   7.5350000  -5.7530000   5.3980000   7.3510000
  -4.6970000   4.4900000   8.4850000  -6.1660000   3.2700000   7.6720000
  -6.7850000   3.3310000   6.7770000  -5.5360000   1.8680000   7.7220000
  -4.8040000   1.8450000   8.5300000  -5.1290000   1.5500000   6.7620000
  -6.3000000   1.1060000   7.8780000  -7.0050000   3.4120000   8.8890000
  -7.6940000   4.2560000   8.9230000  -6.3180000   3.3900000   9.7350000
  -7.5970000   2.4970000   8.8970000  -4.7370000   5.1970000   4.2550000
  -4.5070000   6.0860000   4.6770000  -5.1950000   5.2260000   2.7990000
  -5.9920000   4.4860000   2.7320000  -4.0710000   4.8290000   1.8460000
  -4.2930000   4.0100000   0.8760000  -5.8100000   6.6050000   2.4340000
  -6.5440000   6.9820000   3.1460000  -4.9550000   7.2560000   2.6180000
  -6.3200000   6.8430000   0.9680000  -5.4370000   6.8340000   0.3290000
  -6.6960000   7.8610000   0.8740000  -7.3030000   5.7540000   0.5540000
  -8.0430000   5.6280000   1.3440000  -6.7420000   4.8270000   0.4290000
  -8.0380000   6.0980000  -0.7580000  -8.5840000   5.2390000  -1.1470000
  -8.7340000   6.9220000  -0.5970000  -7.1500000   6.4380000  -1.8470000
  -6.7280000   7.3550000  -1.8350000  -7.6440000   6.3900000  -2.7260000
  -6.4410000   5.7250000  -1.9390000  -2.9700000   5.4690000   2.0930000
  -2.9730000   5.9940000   2.9560000  -1.6910000   5.3770000   1.3580000
  -1.9780000   5.3530000   0.3070000  -1.0770000   3.9540000   1.5400000
  -0.5210000   3.5010000   0.5480000  -0.7550000   6.5300000   1.8590000
  -1.2500000   7.4950000   1.9690000  -0.3890000   6.1300000   2.8040000
   0.4470000   6.7190000   0.9870000   0.9360000   5.7460000   1.0260000
   0.0940000   7.1110000  -0.4780000   0.9160000   7.1380000  -1.1930000
  -0.4350000   8.0640000  -0.4890000  -0.6530000   6.4560000  -0.9250000
   1.3740000   7.8900000   1.3710000   0.9150000   8.8540000   1.1490000
   2.2550000   7.8010000   0.7350000   1.6860000   7.8580000   2.4150000
  -1.3340000   3.2440000   2.6670000  -1.8310000   3.7380000   3.3950000
  -1.1100000   1.8100000   2.8450000  -0.0760000   1.5040000   2.6880000
  -2.0830000   0.9660000   2.0170000  -1.6400000   0.0250000   1.3510000
  -1.4080000   1.4560000   4.3270000  -0.6890000   1.9800000   4.9580000
  -2.4290000   1.7600000   4.5580000  -1.1960000  -0.0250000   4.7140000
  -0.2190000  -0.3840000   4.3900000  -1.9430000  -0.6030000   4.1700000
  -1.2720000  -0.3530000   6.2120000  -0.3990000   0.0570000   6.7220000
  -2.1790000   0.1610000   6.5320000  -1.3760000  -1.8350000   6.4490000
  -0.3830000  -2.2290000   6.2300000  -2.1530000  -2.2530000   5.8110000
  -1.7120000  -2.2850000   7.8590000  -2.6790000  -2.1460000   8.1140000
  -1.6580000  -3.2930000   7.8760000  -1.1560000  -1.9470000   8.6310000
  -3.2900000   1.3470000   2.0180000  -3.6100000   1.9520000   2.7600000
  -4.3390000   0.5590000   1.3310000  -4.2160000  -0.5020000   1.5520000
  -4.1990000   0.5510000  -0.1650000  -4.6090000  -0.3670000  -0.8220000
  -5.7470000   1.0230000   1.7660000  -5.8190000   1.1880000   2.8410000
  -6.0450000   2.0410000   1.5160000  -6.8060000   0.2960000   1.2340000
  -6.7900000  -0.5010000   1.7690000  -3.7900000   1.6650000  -0.7610000
  -3.6350000   2.4480000  -0.1420000  -3.4810000   1.8260000  -2.1880000
  -4.3770000   1.3570000  -2.5950000  -2.2490000   1.2240000  -2.7160000
  -2.2460000   0.5170000  -3.7230000  -3.4620000   3.3520000  -2.4700000
  -2.9410000   3.4710000  -3.4200000  -2.9080000   3.8580000  -1.6790000
  -4.8170000   4.0570000  -2.4330000  -5.8520000   3.4010000  -2.1510000
  -4.8900000   5.3010000  -2.6540000  -1.1730000   1.4620000  -1.9740000
  -1.2120000   2.1100000  -1.2000000   0.0420000   0.7140000  -2.1650000
   0.3690000   0.9450000  -3.1790000  -0.0500000  -0.8260000  -2.2090000
   0.3890000  -1.4340000  -3.2080000   1.0990000   1.3200000  -1.2110000
   1.0310000   2.4060000  -1.1450000   1.1430000   0.9020000  -0.2060000
   2.1090000   1.1860000  -1.5960000  -0.7620000  -1.4100000  -1.2650000
  -1.1710000  -0.8210000  -0.5540000  -0.9940000  -2.8660000  -1.2190000
   0.0160000  -3.2230000  -1.4190000  -1.8560000  -3.3980000  -2.3080000
  -1.6480000  -4.5800000  -2.5790000  -1.4550000  -3.4160000   0.1410000
  -1.3250000  -4.4970000   0.2040000  -0.8340000  -2.9550000   0.9100000
  -2.9480000  -3.0890000   0.3740000  -3.0590000  -2.0250000   0.1620000
  -3.4640000  -3.6410000  -0.4120000  -3.5650000  -3.3650000   1.7210000
  -2.9010000  -3.9390000   2.5860000  -4.8140000  -3.1660000   1.8680000
  -2.8140000  -2.6230000  -2.8160000  -2.9230000  -1.7040000  -2.4120000
  -3.7190000  -2.9710000  -3.9830000  -4.0140000  -4.0170000  -3.8970000
  -3.1580000  -2.9890000  -5.4440000  -3.6810000  -3.7100000  -6.2880000
  -4.9120000  -1.9870000  -4.0940000  -5.3770000  -1.9770000  -3.1080000
  -5.6310000  -2.2110000  -4.8820000  -4.4930000  -1.0150000  -4.3570000
  -2.0360000  -2.3280000  -5.5790000  -1.7740000  -1.8960000  -4.7040000
  -1.1680000  -2.2240000  -6.6910000  -1.7310000  -2.4350000  -7.6000000
   0.0150000  -3.1320000  -6.5090000   0.3080000  -3.8410000  -7.4730000
  -0.7490000  -0.7600000  -6.8570000  -0.2020000  -0.4730000  -5.9590000
  -1.9150000   0.2440000  -6.9120000  -2.4070000   0.2040000  -7.8840000
  -2.5830000   0.0740000  -6.0670000   0.2350000  -0.5510000  -8.0240000
   0.6230000   0.4670000  -8.0660000  -0.3150000  -0.6540000  -8.9590000
   1.0800000  -1.2350000  -7.9460000  -1.5140000   1.6860000  -6.7010000
  -1.0180000   1.7760000  -5.7350000  -0.7610000   2.0650000  -7.3920000
  -2.3550000   2.3750000  -6.7770000   0.6030000  -3.3780000  -5.3030000
   0.3880000  -2.8660000  -4.4590000   1.7880000  -4.1800000  -5.2050000
   2.3530000  -3.9620000  -6.1110000   1.4250000  -5.7170000  -5.3060000
   2.3580000  -6.4490000  -5.5340000   2.5900000  -3.8050000  -3.9570000
   2.1650000  -4.2130000  -3.0390000   2.7640000  -2.7310000  -3.8960000
   3.6100000  -4.1840000  -4.0070000   0.1660000  -6.1550000  -5.1840000
  -0.5180000  -5.5540000  -4.7450000  -0.3730000  -7.4590000  -5.5870000
   0.4120000  -8.1200000  -5.2210000  -0.4770000  -7.5840000  -7.1600000
  -0.3100000  -8.6840000  -7.8020000  -1.7200000  -7.6560000  -4.8690000
  -1.4940000  -7.7280000  -3.8050000  -2.2290000  -8.5550000  -5.2160000
  -2.5410000  -6.5440000  -5.0950000  -2.7950000  -6.1850000  -4.2420000
  -0.9060000  -6.5290000  -7.7980000  -1.0130000  -5.6630000  -7.2890000
  -1.0550000  -6.4440000  -9.3070000  -1.6210000  -7.3250000  -9.6100000
   0.2480000  -6.3450000 -10.1440000   0.2520000  -7.0720000 -11.1550000
  -2.0040000  -5.2410000  -9.6450000  -1.7650000  -4.3010000  -9.1470000
  -2.0740000  -5.1880000 -10.7320000  -3.4330000  -5.6200000  -9.3010000
  -3.7460000  -6.3720000 -10.0260000  -3.4840000  -5.9180000  -8.2540000
  -4.5210000  -4.4780000  -9.4100000  -4.4260000  -3.8300000 -10.2810000
  -4.2300000  -3.7980000  -8.6090000  -5.8480000  -5.0020000  -9.1740000
  -6.6090000  -5.0490000  -9.8360000  -6.2890000  -5.5060000  -8.0040000
  -5.7030000  -5.3890000  -6.9000000  -4.7430000  -5.0750000  -6.9100000
  -6.0230000  -6.0020000  -6.1640000  -7.3970000  -6.1730000  -7.9180000
  -7.7600000  -6.3600000  -6.9940000  -7.8160000  -6.4280000  -8.8010000
   1.1800000  -5.5360000  -9.7940000   1.1330000  -5.1420000  -8.8650000
   2.5370000  -5.6420000 -10.3000000   2.5210000  -5.7690000 -11.3830000
   3.1870000  -6.9160000  -9.7440000   3.3730000  -7.0520000  -8.5160000
   3.3300000  -4.3680000  -9.9570000   4.2940000  -4.3880000 -10.4650000
   3.3910000  -4.4060000  -8.8690000   2.6410000  -2.9890000 -10.2850000
   1.6530000  -3.0160000  -9.8250000   2.6450000  -2.8100000 -11.8100000
   2.1380000  -3.6600000 -12.2660000   3.6500000  -2.7180000 -12.2230000
   2.2620000  -1.8440000 -12.1410000   3.4230000  -1.8470000  -9.6510000
   3.0170000  -0.8720000  -9.9170000   4.4680000  -1.9890000  -9.9280000
   3.2720000  -1.9410000  -8.5760000   3.6800000  -7.6290000 -10.7700000
   3.4400000  -7.4690000 -11.7380000   4.7090000  -8.6980000 -10.5410000
   5.0600000  -9.0100000 -11.5250000   4.2270000  -9.9820000  -9.8110000
   4.3610000 -11.0540000 -10.3870000   6.0190000  -8.0540000  -9.9830000
   5.9480000  -7.7580000  -8.9360000   6.7990000  -8.7990000 -10.1400000
   6.4990000  -6.7530000 -10.5870000   6.8670000  -6.6960000 -11.8180000
   6.5410000  -5.6810000  -9.9280000   3.7320000  -9.8380000  -8.5870000
   3.5740000  -8.8840000  -8.2950000   3.4310000 -10.9040000  -7.6550000
   2.8220000 -11.6020000  -8.2300000   4.3690000 -11.3930000  -7.3920000
   2.6640000 -10.3640000  -6.3890000   1.4360000 -10.3730000  -6.3260000
   3.5420000  -9.9120000  -5.4570000   4.5270000 -10.0920000  -5.5950000
   3.1770000  -9.2010000  -4.2200000   2.7100000  -8.2560000  -4.4970000
   4.4580000  -8.9310000  -3.3170000   5.5500000  -9.4650000  -3.5510000
   2.2650000 -10.1110000  -3.4420000   1.4650000 -10.5850000  -4.0120000
   1.8720000  -9.5400000  -2.6010000   3.0250000 -11.2120000  -3.0400000
   2.8070000 -11.9190000  -3.6520000   4.2890000  -8.0340000  -2.3450000
   3.3540000  -7.6700000  -2.2220000   5.2480000  -7.5010000  -1.4550000
   6.1470000  -8.1040000  -1.5820000   4.7470000  -7.5630000   0.0040000
   3.6060000  -7.3950000   0.3990000   5.6910000  -6.0790000  -1.9170000
   6.5750000  -5.9600000  -1.2910000   4.7370000  -5.0740000  -1.6950000
   3.9910000  -5.2530000  -2.2730000   5.9730000  -6.0820000  -3.3770000
   6.5460000  -5.1990000  -3.6580000   6.6020000  -6.9360000  -3.6270000
   5.0490000  -6.1600000  -3.9500000   5.7630000  -7.6340000   0.8500000
   6.6970000  -7.5910000   0.4670000   5.6610000  -7.6270000   2.3190000
   4.7640000  -8.1100000   2.7060000   5.5970000  -6.2210000   2.8510000
   6.3760000  -5.3620000   2.4440000   6.7600000  -8.4630000   2.9580000
   7.6780000  -7.8860000   3.0680000   6.4190000  -8.7420000   3.9550000
   6.8520000  -9.4310000   2.4660000   4.6940000  -5.9310000   3.8690000
   4.0670000  -6.6480000   4.2050000   4.5990000  -4.6910000   4.6010000
   5.4240000  -4.0290000   4.3370000   4.7260000  -4.9250000   6.1530000
   4.0290000  -5.6870000   6.7720000   3.2050000  -4.0420000   4.2550000
   3.1560000  -3.0390000   4.6780000   2.4080000  -4.7580000   4.4590000
   2.9950000  -3.7510000   2.8240000   2.2780000  -4.5150000   2.0280000
   1.8370000  -5.4090000   2.4450000   3.5600000  -2.6810000   2.0230000
   2.2080000  -3.9590000   0.7750000   1.7950000  -4.4560000  -0.0010000
   2.9210000  -2.7950000   0.6980000   4.4330000  -1.5730000   2.2010000
   4.8370000  -1.4610000   3.1960000   3.3120000  -1.8760000  -0.3150000
   2.9800000  -2.0740000  -1.3230000   4.6820000  -0.6170000   1.1900000
   5.3270000   0.2260000   1.3910000   4.2270000  -0.8260000  -0.0830000
   4.5230000  -0.1950000  -0.9090000   5.6200000  -4.1540000   6.8150000
   6.1390000  -3.4850000   6.2650000   5.6750000  -4.2300000   8.3200000
   5.5380000  -5.2920000   8.5270000   4.6100000  -3.3920000   9.0620000
   4.3010000  -3.7050000  10.2250000   7.1260000  -3.9730000   8.7730000
   7.8370000  -4.4770000   8.1190000   7.3260000  -4.3690000  10.0870000
   7.0040000  -3.6190000  10.5930000   7.3840000  -2.4930000   8.7330000
   8.3860000  -2.2150000   9.0590000   6.6830000  -2.0420000   9.4350000
   7.2140000  -2.0820000   7.7380000   4.0740000  -2.4110000   8.3320000
   4.5670000  -2.1690000   7.4840000   3.1240000  -1.3750000   8.9200000
   3.0670000  -0.5870000   8.1690000   3.7160000  -0.6550000  10.1630000
   3.4630000  -1.0940000  11.3220000   1.7530000  -1.8730000   9.0330000
   1.3570000  -2.2440000   8.0880000   1.7120000  -2.7420000   9.6890000
   0.7960000  -0.7920000   9.5340000  -0.3540000  -1.1950000   9.8590000
   1.1340000   0.4150000   9.4110000   4.4620000   0.3110000  10.0740000
   4.4510000   1.6720000   5.9300000   4.1280000   0.8380000   4.8350000
   4.5790000   1.3470000   3.6550000   3.7160000   1.4060000   2.6070000
   4.1340000   1.9040000   1.3890000   5.4220000   2.3190000   1.2230000
   5.9180000   2.8590000  -0.0690000   7.0500000   3.3150000  -0.1720000
   5.0960000   2.8630000  -1.2920000   4.4810000   4.0360000  -1.7160000
   3.6980000   4.0370000  -2.8630000   3.5470000   2.8640000  -3.6140000
   4.2040000   1.6980000  -3.2020000   4.9740000   1.7050000  -2.0630000
   6.3360000   2.2580000   2.3120000   7.5900000   2.6740000   2.1260000
   5.8870000   1.7580000   3.5220000   4.2446833   1.1392813   6.8700235
   5.5173370   1.9384318   5.8859594   3.8422833   2.5871636   5.8859594
   2.6804964   1.0556813   2.7295118   3.4255328   1.9661276   0.5498252
   4.6149614   4.9646734  -1.1418745   3.1949143   4.9614757  -3.1827648
   2.9192937   2.8589753  -4.5173048   4.1038047   0.7743875  -3.7909829
   5.4995184   0.7887943  -1.7557581   8.2391426   2.6386462   2.8726351
   6.5748269   1.6888167   4.3776330
