
  421  0.0000000e+00
   1.6020000  -3.7890000  10.6920000   1.7180000  -4.5500000  10.0370000
   1.6840000  -3.9780000  11.6810000   2.3550000  -3.1610000  10.4480000
   0.3380000  -3.0930000  10.3550000  -0.3270000  -3.8220000   9.8920000
   0.5380000  -1.9360000   9.3960000   1.6760000  -1.5100000   9.1700000
  -0.3780000  -2.6140000  11.6150000  -1.2890000  -2.1040000  11.3030000
  -0.5320000  -3.5290000  12.1870000   0.4310000  -1.6140000  12.2580000
  -0.0570000  -1.1920000  12.9690000  -0.5420000  -1.4300000   8.7950000
  -1.4440000  -1.7800000   9.0860000  -0.4640000  -0.4750000   7.6920000
   0.1800000   0.3530000   7.9880000  -0.0240000  -1.0340000   6.8660000
  -1.7840000   0.0290000   7.3380000  -2.6740000   0.1810000   8.2000000
  -1.9510000   0.2640000   6.0650000  -1.2100000   0.2800000   5.3790000
  -3.1650000   0.8520000   5.5160000  -3.2260000   1.9280000   5.6820000
  -3.8830000   0.2810000   6.1050000  -3.4730000   0.5300000   4.0680000
  -2.5780000   0.3180000   3.2540000  -4.7600000   0.4420000   3.7020000
  -5.4680000   0.6960000   4.3760000  -5.2090000  -0.0510000   2.4400000
  -4.6750000  -0.9640000   2.1780000  -5.0670000   0.9220000   1.2310000
  -5.5440000   2.0750000   1.2700000  -6.6730000  -0.5260000   2.5930000
  -6.8990000  -0.9150000   1.6000000  -6.8580000  -1.2950000   3.3430000
  -7.3780000   0.6770000   2.9330000  -8.2100000   0.5450000   2.4710000
  -4.3490000   0.3910000   0.2910000  -3.9310000  -0.5170000   0.4340000
  -3.7100000   1.2490000  -0.7030000  -4.4400000   1.8200000  -1.2770000
  -3.1340000   2.0020000  -0.1640000  -2.7860000   0.5460000  -1.6100000
  -1.9870000  -0.2000000  -1.0840000  -2.9360000   0.6400000  -2.9610000
  -3.6780000   1.2190000  -3.3260000  -2.3350000  -0.2930000  -3.9010000
  -2.4250000  -1.2990000  -3.4910000  -0.8730000  -0.0670000  -4.1990000
  -0.4440000   0.6090000  -5.1360000  -3.1600000  -0.3530000  -5.1740000
  -3.3700000   0.6920000  -5.4000000  -2.5290000  -0.7060000  -5.9900000
  -4.5020000  -1.0890000  -5.0120000  -4.3030000  -2.1590000  -4.9660000
  -4.9390000  -0.7460000  -4.0740000  -5.4450000  -0.7580000  -6.1510000
  -5.3160000   0.3050000  -6.3560000  -5.1130000  -1.3540000  -7.0010000
  -6.9120000  -1.0340000  -5.8420000  -7.2030000  -0.3170000  -5.0750000
  -7.5450000  -0.7720000  -6.6890000  -7.2650000  -2.4700000  -5.6060000
  -8.2100000  -2.6780000  -5.3180000  -7.0010000  -2.9920000  -6.4300000
  -6.5800000  -2.8650000  -4.9780000  -0.0870000  -0.5910000  -3.3220000
  -0.4140000  -0.8470000  -2.4020000   1.3900000  -0.5050000  -3.4520000
   1.8320000  -1.2210000  -4.1440000   1.7870000  -0.7980000  -2.4800000
   2.0900000   0.8370000  -3.8340000   1.7730000   1.8510000  -3.2680000
   2.9800000   0.8600000  -4.7920000   3.0770000  -0.0510000  -5.2190000
   3.5150000   2.0510000  -5.4240000   3.4800000   2.8250000  -4.6560000
   2.7600000   2.3970000  -6.7040000   2.3840000   1.5000000  -7.5030000
   5.0020000   1.7230000  -5.6780000   5.1250000   0.7740000  -6.2000000
   5.4810000   2.4800000  -6.2990000   5.7910000   1.6320000  -4.3600000
   5.1900000   1.0970000  -3.6250000   7.0470000   0.8550000  -4.5940000
   7.5250000   1.2460000  -5.4920000   6.9090000  -0.2260000  -4.6170000
   7.7310000   0.9920000  -3.7560000   6.0620000   2.9000000  -3.6110000
   6.7870000   3.5060000  -4.1550000   6.5890000   2.6820000  -2.6820000
   5.0970000   3.3650000  -3.4100000   2.5070000   3.6930000  -6.9400000
   2.7580000   4.3800000  -6.2430000   1.8290000   4.2060000  -8.1130000
   2.0190000   5.2720000  -8.2350000   2.1200000   3.7900000  -9.0770000
   0.2830000   4.0710000  -8.0770000  -0.3280000   4.5420000  -9.0990000
  -0.2900000   3.3080000  -7.2130000   0.2240000   2.8310000  -6.4860000
  -1.7250000   3.1150000  -7.0560000  -2.0180000   2.2740000  -6.4270000
  -2.2430000   2.7530000  -7.9440000  -2.3940000   4.3980000  -6.6040000
  -1.7780000   5.4690000  -6.4240000  -3.6660000   4.1530000  -6.4270000
  -3.9510000   3.2120000  -6.6600000  -4.6720000   5.1470000  -6.0810000
  -5.6990000   4.7990000  -5.9720000  -4.6940000   5.8740000  -6.8930000
  -4.2850000   5.9400000  -4.8300000  -4.3040000   5.3850000  -3.7240000
  -4.0500000   7.2570000  -5.0190000  -4.1360000   7.5810000  -5.9720000
  -3.7190000   8.2930000  -4.0070000  -2.7800000   7.8920000  -3.6240000
  -4.6900000   8.3380000  -2.7840000  -5.9190000   8.2190000  -2.9180000
  -3.5940000   9.7040000  -4.6500000  -2.9140000   9.7670000  -5.4990000
  -3.0210000  10.4360000  -4.0800000  -4.8700000  10.4160000  -5.0470000
  -5.4290000  10.3900000  -6.2520000  -5.0820000   9.7700000  -7.0650000
  -5.5650000  11.5110000  -4.3360000  -6.5550000  11.1980000  -6.2670000
  -7.1740000  11.2980000  -7.0590000  -6.7220000  11.9430000  -5.1180000
  -5.3860000  12.2300000  -3.0900000  -4.6180000  11.8560000  -2.4290000
  -7.6770000  12.9000000  -4.6580000  -8.4480000  13.1980000  -5.3540000
  -6.2740000  13.2320000  -2.7180000  -6.1710000  13.7060000  -1.7530000
  -7.3990000  13.5740000  -3.4760000  -7.9530000  14.4240000  -3.1080000
  -4.1240000   8.7360000  -1.6400000  -3.1190000   8.8090000  -1.5790000
  -4.9380000   9.0840000  -0.4530000  -4.4470000   9.9710000  -0.0540000
  -5.8760000   9.5060000  -0.8150000  -5.0950000   7.9100000   0.5780000
  -5.5230000   8.1620000   1.6760000  -4.7070000   6.7290000   0.1270000
  -4.2780000   6.7550000  -0.7870000  -4.6070000   5.4830000   0.8960000
  -5.2250000   5.4850000   1.7940000  -4.9000000   4.6500000   0.2570000
  -3.1940000   5.1420000   1.5130000  -2.2730000   5.9720000   1.5250000
  -3.1340000   3.9930000   2.0920000  -3.8680000   3.3010000   2.0440000
  -1.8530000   3.4920000   2.4240000  -1.1350000   3.7750000   1.6550000
  -1.9050000   2.4080000   2.3250000  -1.2570000   3.8780000   3.7760000
  -0.7460000   3.0370000   4.4890000  -1.3500000   5.1770000   4.1260000
  -1.8330000   5.7060000   3.4150000  -1.1130000   5.8490000   5.4290000
  -0.8660000   6.9030000   5.3010000   0.1430000   5.2520000   6.0580000
   1.2830000   5.6110000   5.6620000  -2.3080000   5.9950000   6.3580000
  -1.9230000   6.3410000   7.3180000  -2.8980000   5.0970000   6.5380000
  -3.2440000   7.1070000   5.8650000  -2.6530000   7.9860000   5.6050000
  -4.1800000   6.7140000   4.6390000  -3.6090000   6.4610000   3.7460000
  -4.8480000   7.5550000   4.4510000  -4.8230000   5.9160000   5.0100000
  -4.3020000   7.5810000   6.8740000  -5.0890000   6.8490000   7.0600000
  -4.7930000   8.4380000   6.4120000  -3.8400000   8.0620000   7.7360000
   0.0150000   4.4590000   7.1680000  -0.9000000   4.0880000   7.3790000
   1.1720000   4.1120000   7.9950000   1.7800000   5.0140000   8.0560000
   0.8260000   3.8660000   8.9990000   1.9700000   2.9320000   7.4510000
   2.7270000   2.2940000   8.2090000   1.6610000   2.4280000   6.2770000
   0.9470000   2.9190000   5.7580000   2.3420000   1.4330000   5.4740000
   2.7070000   0.5740000   6.0360000   3.2070000   1.9590000   5.0700000
   1.5070000   0.7790000   4.4130000   0.6450000  -0.0180000   4.5840000
   1.7570000   1.1890000   3.1450000   2.3810000   1.9640000   2.9740000
   0.8150000   0.9770000   2.0330000  -0.0690000   1.5160000   2.3760000
   1.1730000   1.5150000   1.1560000   0.4690000  -0.4690000   1.7310000
   1.4060000  -1.2080000   1.7530000  -0.7940000  -0.7310000   1.4860000
  -1.4460000  -0.0110000   1.7640000  -1.3650000  -2.0870000   1.3250000
  -2.4490000  -2.0900000   1.4330000  -0.8630000  -2.6730000   2.0950000
  -1.0500000  -2.8090000  -0.0120000   0.0660000  -2.6710000  -0.6350000
  -2.0400000  -3.6080000  -0.3680000  -2.8350000  -3.5020000   0.2460000
  -1.9860000  -4.6170000  -1.4290000  -0.9500000  -4.9420000  -1.3360000
  -2.1230000  -4.1480000  -2.8730000  -3.1540000  -3.5680000  -3.2510000
  -3.0060000  -5.7140000  -1.0390000  -2.7880000  -6.4880000  -1.7740000
  -4.0420000  -5.3760000  -1.0120000  -2.7570000  -6.3270000   0.3340000
  -2.8430000  -5.5520000   1.0950000  -1.7060000  -6.6140000   0.3260000
  -3.5750000  -7.6050000   0.5080000  -3.3860000  -8.6010000  -0.2460000
  -4.3970000  -7.7290000   1.3950000  -1.1080000  -4.3220000  -3.7290000
  -0.2860000  -4.8070000  -3.3980000  -1.2110000  -4.0790000  -5.1650000
  -2.1240000  -3.5690000  -5.4700000  -1.1990000  -5.0340000  -5.6910000
  -0.0460000  -3.3140000  -5.6800000   1.0580000  -3.2580000  -5.1310000
  -0.3080000  -2.5400000  -6.7730000  -1.1400000  -2.6750000  -7.3310000
   0.5890000  -1.5540000  -7.3670000   1.0070000  -0.9340000  -6.5740000
   0.1510000  -0.9240000  -8.1410000   1.7870000  -2.2430000  -8.0050000
   1.7870000  -3.4160000  -8.3840000   2.9190000  -1.5640000  -8.2230000
   2.9390000  -0.5700000  -8.0450000   4.2310000  -2.2590000  -8.3020000
   4.1500000  -3.2270000  -8.7970000   4.5660000  -2.4810000  -6.7780000
   4.3310000  -1.6070000  -5.9780000   5.2280000  -1.3760000  -9.0300000
   5.1280000  -0.3450000  -8.6900000   4.9840000  -1.3620000 -10.0920000
   6.6440000  -1.6650000  -8.9020000   7.2210000  -2.8270000  -9.4430000
   6.6160000  -3.6360000  -9.8250000   7.5300000  -0.7100000  -8.3580000
   7.0570000   0.2020000  -8.0250000   8.5810000  -3.1540000  -9.3500000
   8.9700000  -4.0560000  -9.8000000   8.8730000  -0.9950000  -8.3150000
   9.5160000  -0.2560000  -7.8620000   9.3820000  -2.1870000  -8.7760000
  10.4580000  -2.2670000  -8.7310000   5.1860000  -3.5880000  -6.3940000
   5.6110000  -4.2220000  -7.0560000   5.4630000  -3.8290000  -4.9200000
   6.5010000  -4.1410000  -4.8110000   5.4810000  -2.9230000  -4.3140000
   4.7170000  -4.9150000  -4.0680000   5.2130000  -5.2210000  -2.9920000
   3.5220000  -5.4230000  -4.5540000   3.2140000  -4.9760000  -5.4060000
   2.8350000  -6.6420000  -4.0010000   3.5840000  -7.4080000  -3.7990000
   2.1750000  -7.0190000  -4.7820000   2.1350000  -6.2480000  -2.7810000
   0.9150000  -6.0920000  -2.9380000   2.7310000  -6.1670000  -1.5620000
   3.6970000  -6.4410000  -1.4580000   2.0200000  -5.7000000  -0.3640000
   1.0720000  -5.2550000  -0.6650000   2.6150000  -4.6380000   0.4610000
   2.1140000  -4.3140000   1.5350000   1.5580000  -7.0150000   0.4690000
   0.8830000  -6.6670000   1.2510000   2.4070000  -7.4880000   0.9620000
   0.7970000  -8.1230000  -0.3660000   1.4820000  -8.7700000  -0.9140000
   0.0840000  -7.7160000  -1.0830000   0.0600000  -8.9340000   0.6500000
  -0.7550000  -8.3140000   1.0230000   0.6970000  -9.3000000   1.4550000
  -0.5280000 -10.2290000  -0.0970000   0.2180000 -11.0190000  -0.0040000
  -0.7240000 -10.2430000  -1.1690000  -1.7340000 -10.6860000   0.5900000
  -2.4370000  -9.9810000   0.4190000  -1.9920000 -11.6200000   0.3040000
  -1.6680000 -10.7700000   1.5950000   3.6310000  -3.9590000  -0.1040000
   4.0170000  -4.4100000  -0.9210000   4.1190000  -2.6080000   0.3170000
   3.2340000  -1.9720000   0.3260000   4.8660000  -2.3190000  -0.4220000
   4.6510000  -2.5500000   1.7710000   5.6470000  -3.2610000   2.0060000
   3.9450000  -1.9090000   2.7220000   3.0140000  -1.5820000   2.5060000
   4.2630000  -1.8570000   4.1790000   4.9250000  -2.7070000   4.3500000
   3.0360000  -2.1820000   5.0660000   3.0910000  -2.2150000   6.2990000
   4.9690000  -0.5620000   4.5620000   4.9650000  -0.3560000   5.6320000
   4.4420000   0.2920000   4.1350000   6.4000000  -0.4730000   4.1260000
   7.2940000  -1.4190000   3.8630000   6.9660000  -2.4460000   3.7850000
   7.1580000   0.7520000   3.9280000   8.4740000  -0.9030000   3.3940000
   9.1930000  -1.5540000   3.1120000   8.4670000   0.4270000   3.5090000
   6.9130000   2.1210000   4.2450000   6.0160000   2.3400000   4.8040000
   9.3870000   1.4100000   3.1500000  10.2890000   1.0330000   2.6910000
   7.8470000   3.0920000   3.8800000   7.7110000   4.1380000   4.1110000
   9.0470000   2.7880000   3.2930000   9.7560000   3.5570000   3.0250000
   1.9780000  -2.6690000   4.4360000   2.0070000  -2.6030000   3.4290000
   0.7710000  -3.2960000   5.0700000  -0.0660000  -3.2860000   4.3720000
   0.4590000  -2.7310000   5.9480000   0.9190000  -4.7560000   5.2690000
   0.7680000  -5.2810000   6.3720000   1.1250000  -5.4980000   4.1540000
   1.2310000  -4.9380000   3.3210000   1.1200000  -6.9600000   4.0080000
   1.5190000  -7.3850000   4.9290000   1.7010000  -7.2400000   3.1290000
  -0.2170000  -7.5800000   3.8330000  -1.0490000  -6.9600000   3.1700000
  -0.3600000  -8.7910000   4.3570000   0.3640000  -9.1040000   4.9870000
  -1.6530000  -9.5030000   4.2390000  -1.8780000  -9.5830000   3.1750000
  -2.7750000  -8.7780000   4.9860000  -2.8660000  -8.8800000   6.2250000
  -1.5840000 -10.9020000   4.7690000  -2.5710000 -11.3280000   4.5860000
  -1.3950000 -10.8800000   5.8430000  -0.4780000 -11.6820000   4.0230000
  -0.7380000 -12.1190000   2.8440000   0.6380000 -11.7390000   4.4470000
  -3.7050000  -8.2660000   4.2380000  -3.6570000  -8.4260000   3.2420000
  -5.1000000  -7.9670000   4.7530000  -5.2790000  -8.2620000   5.7880000
  -5.8600000  -8.5530000   4.2360000  -5.4170000  -6.4260000   4.5260000
  -6.2490000  -5.8140000   5.2360000  -4.8020000  -5.8160000   3.4970000
  -4.1610000  -6.3500000   2.9290000  -4.8270000  -4.3930000   3.2000000
  -5.6060000  -3.9520000   3.8210000  -5.2680000  -3.9180000   1.7300000
  -4.4730000  -3.1360000   1.1320000  -3.5280000  -3.7730000   3.7260000
  -3.6910000  -2.7260000   3.4710000  -2.6370000  -4.1360000   3.2140000
  -3.2700000  -3.8150000   5.1740000  -3.5570000  -2.7830000   6.0140000
  -4.0320000  -1.8650000   5.7010000  -2.5770000  -4.8800000   5.6370000
  -2.2830000  -5.7000000   4.9980000  -3.1680000  -2.8280000   7.3990000
  -3.4610000  -2.0070000   8.0370000  -2.2370000  -4.9870000   6.9940000
  -1.6410000  -5.8170000   7.3420000  -2.5140000  -3.9560000   7.8900000
  -2.3460000  -4.1490000   9.2580000  -2.0560000  -5.0640000   9.2780000
  -6.4020000  -4.2580000   1.2980000   2.9400000   5.8030000   0.2270000
   1.7530000   6.1990000  -0.6060000   0.7930000   7.0710000   0.1600000
  -0.6310000   6.6800000  -0.0690000  -0.8720000   5.1880000  -0.0210000
  -1.9780000   4.8330000  -1.0030000  -2.5110000   3.4470000  -0.8780000
  -1.2600000   4.8370000   1.2910000  -0.4340000   4.1370000   2.0760000
  -0.4400000   4.2640000   3.2710000   0.4620000   3.2180000   1.3350000
   1.5400000   2.6920000   1.9260000   2.4980000   1.7890000   1.2450000
   3.7090000   2.2230000   0.7720000   4.5800000   1.3410000   0.1400000
   4.2390000   0.0240000  -0.0220000   5.0510000  -0.8910000  -0.6260000
   4.5000000  -1.8620000  -1.4950000   3.0260000  -0.4160000   0.4480000
   2.1540000   0.4640000   1.0780000   2.6843709   5.8882815   1.2934806
   3.2178815   4.7634870  -0.0014615   3.7863489   6.4674538  -0.0014615
   2.1069808   6.7508515  -1.4892653   1.2207490   5.2815675  -0.8975931
   1.0156979   6.9847398   1.2337620   0.9202469   8.1048081  -0.1936228
  -1.2497617   7.1558923   0.7060229  -0.8944938   7.0135204  -1.0835616
   0.0420660   4.6402674  -0.2938962  -2.8109944   5.5342031  -0.8466848
  -1.5316918   4.9011586  -2.0060770  -2.6109194   3.1871722   0.1861925
  -3.4960536   3.3877482  -1.3639616  -1.8194630   2.7429987  -1.3639616
   0.2379059   2.9659878   0.2879701   1.7269316   2.9444440   2.9801957
   3.9949252   3.2782589   0.8931424   5.5494343   1.7037705  -0.2322831
   4.0428135  -2.6676771  -0.9018180   3.7332490  -1.3933770  -2.1294173
   5.2955318  -2.2799041  -2.1294173   2.7426892  -1.4717564   0.3250631
   1.1829156   0.1011627   1.4458917
