
  315  0.0000000e+00
 -11.4000000   3.4700000  -0.2700000 -11.0900000   2.5700000   0.0700000
 -12.0400000   3.3700000  -1.0400000 -11.8300000   4.0100000   0.4700000
 -10.2900000   4.2500000  -0.8800000 -10.6000000   5.2700000  -1.1200000
  -9.8300000   3.7200000  -2.2000000 -10.1600000   2.5900000  -2.5800000
  -9.0900000   4.4600000   0.0700000  -8.5200000   3.5400000   0.1700000
  -8.3500000   5.1500000  -0.3300000  -9.4100000   4.9500000   1.4400000
  -9.5500000   6.3600000   1.6800000  -9.2400000   7.0400000   0.9000000
  -9.5200000   4.0000000   2.4600000  -9.2300000   2.9700000   2.2900000
  -9.7700000   6.7900000   2.9800000  -9.5400000   7.8200000   3.2200000
  -9.8500000   4.4800000   3.7300000  -9.9900000   3.7400000   4.5000000
  -9.9900000   5.8600000   4.0300000 -10.0800000   6.2700000   5.0200000
  -9.0000000   4.5500000  -2.8800000  -8.8300000   5.5000000  -2.6200000
  -8.1100000   4.1100000  -3.9100000  -8.6100000   3.2100000  -4.2800000
  -8.0400000   4.9600000  -4.5900000  -6.6200000   3.9100000  -3.2600000
  -6.6900000   3.7000000  -2.0000000  -5.5800000   4.0000000  -4.0500000
  -5.7900000   3.9600000  -5.0400000  -4.1500000   3.9600000  -3.7000000
  -3.9800000   2.9700000  -3.2800000  -3.6900000   4.9700000  -2.6500000
  -4.3300000   6.0300000  -2.4200000  -3.3700000   4.0500000  -4.9300000
  -3.6400000   4.9400000  -5.5100000  -2.2900000   4.1700000  -4.8000000
  -3.6400000   2.8000000  -5.8200000  -3.1400000   2.0000000  -5.2800000
  -4.7000000   2.6900000  -6.0600000  -2.8100000   2.9400000  -7.0700000
  -3.0200000   3.7800000  -7.7200000  -1.8300000   3.2300000  -6.6900000
  -2.8700000   1.7500000  -7.9000000  -3.6400000   1.5300000  -8.5200000
  -2.1200000   0.7300000  -7.6100000  -1.1300000   0.6300000  -6.8000000
  -0.6900000   1.4800000  -6.4700000  -0.7100000  -0.2600000  -6.5500000
  -2.3000000  -0.3800000  -8.2300000  -3.1000000  -0.5400000  -8.8400000
  -1.6600000  -1.1400000  -8.0700000  -2.6600000   4.6500000  -1.9100000
  -2.1400000   3.7900000  -2.0000000  -2.0500000   5.5200000  -0.9000000
  -1.4500000   6.2600000  -1.4300000  -2.7900000   6.1200000  -0.3600000
  -1.2900000   4.8200000   0.2200000  -0.6300000   3.7800000   0.0200000
  -1.2400000   5.4500000   1.3700000  -1.9800000   6.1300000   1.4700000
  -0.5900000   4.9800000   2.5700000   0.2000000   4.2700000   2.3400000
  -1.5200000   4.1100000   3.3900000  -1.9700000   4.3500000   4.5100000
  -0.0200000   6.1800000   3.3700000   0.5700000   5.8100000   4.2000000
  -0.8000000   6.8200000   3.7900000   0.8400000   7.0900000   2.5000000
   0.2600000   7.7000000   1.8200000   1.4700000   6.4600000   1.8800000
   1.6600000   7.8500000   3.5200000   0.9700000   8.2700000   4.2600000
   2.3700000   7.1900000   4.0100000   2.5900000   9.0000000   3.0000000
   3.3500000   8.4500000   2.4400000   2.0500000   9.7500000   2.4200000
   3.2400000   9.6400000   4.2100000   3.5500000   8.9900000   4.9200000
   4.1000000  10.1400000   4.0100000   2.6100000  10.3000000   4.6300000
  -1.8200000   2.9400000   2.7800000  -1.7600000   2.8100000   1.7800000
  -2.1700000   1.7000000   3.5200000  -3.1400000   1.8100000   3.9900000
  -1.5000000   1.5000000   4.3600000  -2.1800000   0.5100000   2.6000000
  -1.8000000   0.6000000   1.4500000  -2.6200000  -0.6000000   3.1600000
  -2.9700000  -0.5100000   4.1000000  -2.8000000  -1.8600000   2.4100000
  -3.7200000  -2.3400000   2.7500000  -2.9800000  -1.6900000   1.3500000
  -1.6600000  -2.7900000   2.6900000  -1.3300000  -3.1100000   3.8500000
  -1.0100000  -3.1600000   1.5700000  -1.4000000  -2.8800000   0.6800000
   0.3700000  -3.4900000   1.5200000   0.9700000  -3.1400000   2.3700000
   0.7900000  -3.0400000   0.6200000   0.6100000  -5.0400000   1.3200000
  -0.3100000  -5.7800000   1.3700000   1.8100000  -5.4100000   0.9200000
   2.4800000  -4.6700000   1.0700000   2.2800000  -6.7300000   0.7600000
   1.8400000  -7.3900000   1.5200000   3.8300000  -6.7000000   0.8900000
   4.3800000  -7.5100000   1.6600000   1.8600000  -7.3200000  -0.6300000
   0.8000000  -7.1000000  -0.7600000   2.5000000  -6.8500000  -1.3700000
   1.9100000  -8.8400000  -0.6300000   2.1700000  -9.4900000   0.3800000
   1.6500000  -9.4600000  -1.6900000   4.5500000  -5.7600000   0.1900000
   4.1000000  -4.9500000  -0.1900000   5.9900000  -5.6800000   0.1600000
   6.3700000  -6.0800000  -0.7800000   6.4200000  -6.3000000   0.9500000
   6.5600000  -4.3100000   0.5400000   6.2700000  -3.3000000   0.0000000
   7.5400000  -4.3000000   1.5100000   7.9400000  -5.2000000   1.7200000
   7.6600000  -3.3100000   2.6200000   6.6200000  -3.1500000   2.9000000
   8.1200000  -1.8400000   2.2400000   8.3300000  -0.9900000   3.1000000
   8.3500000  -3.9500000   3.8300000   8.3400000  -3.2900000   4.7000000
   9.4300000  -3.9600000   3.6700000   7.7400000  -5.3500000   4.2600000
   6.6700000  -5.3600000   4.4400000   8.1300000  -5.5000000   5.2700000
   8.1200000  -6.6400000   3.4300000   7.8700000  -7.8000000   3.8500000
   8.8000000  -6.5700000   2.3500000   8.1600000  -1.4100000   0.9700000
   8.0800000  -2.1100000   0.2500000   8.2100000   0.0200000   0.5400000
   9.1800000   0.3500000   0.1600000   8.0900000   0.7000000   1.3800000
   7.1800000   0.3300000  -0.5400000   6.0200000  -0.1100000  -0.6100000
   7.5200000   1.1700000  -1.5000000   8.5000000   1.4500000  -1.4900000
   6.6500000   1.9000000  -2.4600000   5.7800000   2.3800000  -2.0000000
   6.2000000   0.9700000  -3.5500000   7.0400000   0.4100000  -4.2700000
   7.5500000   3.0300000  -3.0800000   8.4600000   2.6000000  -3.5000000
   7.9800000   4.0700000  -2.0300000   7.2400000   3.9400000  -1.2400000
   7.9400000   5.0700000  -2.4600000   6.8200000   3.7800000  -4.2100000
   7.2600000   4.7400000  -4.4900000   5.8000000   4.0600000  -3.9300000
   6.7500000   3.2000000  -5.1300000   9.3700000   3.8000000  -1.4400000
   9.9200000   3.0400000  -1.9900000  10.0400000   4.6500000  -1.2800000
   9.2500000   3.2600000  -0.5000000   4.8700000   0.9200000  -3.7700000
   4.2300000   1.4300000  -3.1700000   4.3200000  -0.0200000  -4.8100000
   5.1100000  -0.2400000  -5.5400000   3.4700000   0.5000000  -5.2500000
   3.9600000  -1.4300000  -4.3300000   4.0600000  -2.4200000  -5.0600000
   3.5600000  -1.5700000  -3.0600000   3.3600000  -0.7600000  -2.5000000
   3.1300000  -2.8300000  -2.5000000   3.3100000  -3.6700000  -3.1800000
   3.6500000  -3.0200000  -1.5600000   1.6300000  -2.8600000  -2.1600000
   1.1800000  -1.8200000  -1.6200000   0.9100000  -3.8300000  -2.7300000
   1.4600000  -4.5400000  -3.2000000  -0.4900000  -3.9500000  -3.1600000
  -0.7100000  -4.8900000  -3.6700000  -0.6800000  -3.0900000  -3.7900000
  -1.4700000  -3.9500000  -1.9900000  -1.5700000  -2.9600000  -1.2100000
  -2.1300000  -5.0100000  -1.8400000  -1.7800000  -5.7800000  -2.4000000
  -3.1600000  -5.3300000  -0.7700000  -2.9300000  -4.9500000   0.2200000
  -3.1900000  -6.9200000  -0.6600000  -4.0100000  -7.7000000  -1.1800000
  -4.5200000  -4.6900000  -1.1100000  -4.3200000  -4.1700000  -2.0500000
  -5.2100000  -5.5200000  -1.2600000  -5.1700000  -3.6600000  -0.1400000
  -4.5200000  -2.8100000   0.0500000  -5.6700000  -4.2000000   1.1900000
  -5.8600000  -3.3900000   1.8900000  -4.8300000  -4.7400000   1.6400000
  -6.4700000  -4.9400000   1.1400000  -6.3700000  -3.0300000  -0.8000000
  -6.1000000  -2.7100000  -1.8000000  -7.0800000  -3.8200000  -1.0400000
  -6.8000000  -2.1800000  -0.2700000  -2.2300000  -7.4400000   0.1900000
  -1.4900000  -6.8400000   0.5100000  -2.1500000  -8.9200000   0.3900000
  -1.8200000  -9.3400000  -0.5600000  -3.1800000  -9.2200000   0.6000000
  -1.2100000  -9.4300000   1.4400000  -1.1100000 -10.6600000   1.6100000
  -0.4300000  -8.5600000   2.1100000  -0.5200000  -7.5600000   1.9800000
   0.5200000  -9.1100000   3.0900000   0.0100000  -9.6200000   3.9000000
   1.2300000  -9.7900000   2.6200000   1.3000000  -8.0300000   3.9000000
   0.8000000  -6.9300000   4.0900000   2.5300000  -8.3000000   4.2700000
   2.9200000  -9.1600000   3.9200000   3.2200000  -7.6400000   5.3500000
   2.7300000  -7.9100000   6.2900000   3.0800000  -6.0900000   5.4400000
   2.9800000  -5.5200000   6.5500000   4.6900000  -8.0700000   5.4600000
   4.9700000  -7.5500000   6.3800000   5.3000000  -7.7500000   4.6200000
   4.6700000  -9.4900000   5.6000000   5.4900000  -9.7300000   5.1500000
   3.2400000  -5.4600000   4.3100000   3.0900000  -5.9300000   3.4300000
   3.3500000  -4.0200000   4.3200000   2.3600000  -3.6500000   4.5600000
   4.0200000  -3.7200000   5.1200000   3.8200000  -3.2200000   3.1200000
   3.8500000  -3.8100000   2.0200000   4.1400000  -1.9400000   3.2700000
   4.1600000  -1.6200000   4.2300000   4.4600000  -0.9500000   2.1500000
   4.9300000  -1.4900000   1.3300000   5.0900000  -0.1900000   2.6200000
   3.1600000  -0.2600000   1.6800000   2.0600000  -0.6000000   2.1700000
   3.3400000   0.7200000   0.7700000   4.2600000   0.8100000   0.3600000
   2.2800000   1.6200000   0.3500000   1.3600000   1.2900000   0.8300000
   1.9100000   1.5200000  -1.1300000   2.8100000   1.6200000  -1.9400000
   2.5200000   3.0700000   0.6900000   1.5900000   3.6400000   0.6200000
   3.2600000   3.4500000  -0.0300000   3.0300000   3.3100000   2.0000000
   4.1000000   4.0900000   2.2000000   4.7000000   4.5400000   1.4200000
   2.4000000   2.9800000   3.2700000   4.0500000   4.4600000   3.5100000
   4.6900000   5.1300000   3.9400000   3.1200000   3.6900000   4.2700000
   1.3300000   2.1200000   3.6700000   0.8300000   1.5800000   2.8700000
   2.8500000   3.5700000   5.6000000   3.3900000   4.1600000   6.3200000
   1.0600000   1.9400000   5.0700000   0.3300000   1.2600000   5.4800000
   1.7900000   2.7600000   6.0300000   1.4500000   2.6900000   7.0500000
   0.6100000   1.4300000  -1.5000000  -0.0800000   1.6100000  -0.7800000
   0.2100000   1.0500000  -2.8500000  -0.8500000   0.8100000  -2.7400000
   0.9400000   0.3900000  -3.3100000   0.1700000   2.2700000  -3.8000000
  -0.7600000   2.3100000  -4.5800000   1.2300000   3.0600000  -3.9700000
   1.9400000   2.9000000  -3.2700000   1.4900000   4.3200000  -4.7900000
   0.7700000   5.0900000  -4.5200000   1.3400000   3.9600000  -6.3400000
   0.6400000   4.6800000  -7.0400000   2.9300000   4.7700000  -4.6100000
   3.0800000   5.0800000  -3.5700000   3.5900000   3.9100000  -4.7000000
   3.3900000   6.0200000  -5.4400000   4.5400000   5.9900000  -5.8200000
   2.6600000   7.0000000  -5.6900000   2.0100000   3.0900000  -6.8500000
  -1.7790000  -3.8970000  -6.1860000  -1.2290000  -2.7130000  -5.6730000
  -1.9200000  -2.1200000  -4.6570000  -1.3000000  -1.9770000  -3.4700000
  -1.9200000  -1.3480000  -2.4410000  -3.1900000  -0.8330000  -2.5620000
  -3.7360000  -0.1260000  -1.3770000  -2.9750000   0.5290000  -0.6730000
  -5.1200000  -0.1740000  -0.9320000  -6.0120000  -1.1220000  -1.3650000
  -7.2980000  -1.1510000  -0.9080000  -7.7190000  -0.2240000   0.0140000
  -6.8390000   0.7340000   0.4670000  -5.5470000   0.7660000   0.0010000
  -3.8490000  -0.9620000  -3.8040000  -5.0490000  -0.4830000  -3.9840000
  -3.1920000  -1.6180000  -4.8420000  -2.0825630  -4.5504883  -5.3548547
  -2.6574268  -3.6561277  -6.8027226  -1.0283259  -4.4128891  -6.8027226
  -0.2829538  -2.3734441  -3.3341727  -1.3919905  -1.2465558  -1.4813568
  -5.6838386  -1.8752248  -2.0964113  -7.9964994  -1.9160794  -1.2777999
  -8.7530421  -0.2465282   0.3884988  -7.1725470   1.4774788   1.2059084
  -4.8498856   1.5348757   0.3655020  -5.4953385  -0.5829912  -4.8619998
  -3.6901688  -1.7367413  -5.8155134
