
  392  0.0000000e+00
  22.8690000  10.7650000  -4.3160000  22.4940000  10.1080000  -3.6480000
  22.5200000  11.6790000  -4.0640000  23.8680000  10.8310000  -4.1810000
  22.4850000  10.4050000  -5.6750000  22.8460000   9.4100000  -5.9350000
  22.9590000  11.1290000  -6.3370000  21.0120000  10.4840000  -5.8890000
  20.2380000   9.5760000  -5.4730000  20.5180000  11.4370000  -6.6700000
  21.1800000  12.0210000  -7.1610000  19.0930000  11.6550000  -6.8700000
  18.6470000  11.6080000  -5.8760000  18.3780000  10.6650000  -7.7570000
  17.1110000  10.5970000  -7.6700000  18.7730000  13.0900000  -7.4810000
  17.7520000  13.2780000  -7.1480000  18.8980000  13.1490000  -8.5620000
  19.4250000  13.8260000  -7.0090000  19.0750000   9.6750000  -8.3770000
  20.0820000   9.7440000  -8.3330000  18.4150000   8.6200000  -9.1080000
  17.5990000   9.0890000  -9.6580000  17.7400000   7.6680000  -8.0250000
  16.5610000   7.3960000  -8.0590000  19.3650000   7.9150000 -10.1510000
  18.7620000   7.2040000 -10.7170000  20.2620000   7.4580000  -9.7350000
  19.6410000   8.6770000 -10.8800000  18.4810000   7.3890000  -6.9700000
  19.4250000   7.7420000  -6.9110000  18.1030000   6.5950000  -5.8110000
  17.6380000   5.6970000  -6.2180000  17.0420000   7.2200000  -4.9220000
  16.1560000   6.5220000  -4.4160000  19.3820000   6.1180000  -5.0370000
  19.1320000   5.8720000  -4.0050000  19.7670000   5.2560000  -5.5820000
  20.0870000   6.9480000  -5.0680000  16.9430000   8.5560000  -4.8670000
  17.5790000   9.1590000  -5.3690000  15.8030000   9.2840000  -4.1460000
  15.5720000   8.7750000  -3.2100000  14.5740000   9.1580000  -5.0630000
  13.5400000   8.9450000  -4.4570000  16.2540000  10.7070000  -3.8120000
  17.2980000  10.8070000  -3.5140000  15.6550000  11.1450000  -3.0130000
  15.9560000  11.2810000  -4.6890000  14.5860000   9.2040000  -6.4040000
  15.4840000   9.3870000  -6.8280000  13.4520000   8.9960000  -7.2150000
  12.6610000   9.6620000  -6.8720000  12.8430000   7.5550000  -7.1360000
  11.6760000   7.2960000  -7.2160000  13.7540000   9.4880000  -8.6260000
  14.6250000   8.9530000  -9.0060000  12.8840000   9.3820000  -9.2750000
  13.9670000  10.5400000  -8.4350000  13.7070000   6.5680000  -6.8860000
  14.6990000   6.7450000  -6.9420000  13.4210000   5.1710000  -6.6430000
  12.7010000   4.8960000  -7.4140000  12.8550000   4.8330000  -5.2120000
  11.8910000   4.0460000  -5.0210000  14.6790000   4.3360000  -6.9370000
  15.3140000   4.7400000  -7.7260000  15.2280000   4.1210000  -6.0210000
  14.3150000   3.3990000  -7.3590000  13.4310000   5.3970000  -4.1560000
  14.3030000   5.8680000  -4.3490000  12.9270000   5.3990000  -2.7370000
  12.8730000   4.3960000  -2.3140000  11.4700000   5.9380000  -2.5810000
  10.6140000   5.2420000  -2.0520000  13.9190000   6.2020000  -1.7870000
  13.5080000   6.2150000  -0.7770000  14.8980000   5.7400000  -1.9110000
  14.0510000   7.2480000  -2.0660000  11.2380000   7.1480000  -3.0990000
  12.0190000   7.7120000  -3.4030000   9.9090000   7.8400000  -3.3450000
   9.4410000   8.0780000  -2.3900000   8.8800000   6.8980000  -4.0260000
   7.9780000   6.3600000  -3.3170000  10.1040000   9.1930000  -4.0470000
  10.6310000   9.0430000  -4.9890000  10.8740000  10.0730000  -3.0260000
  10.2280000  10.2960000  -2.1770000  11.6850000   9.5170000  -2.5540000
   8.7780000   9.8170000  -4.4330000   8.0800000   9.9710000  -3.6110000
   8.2740000   9.2160000  -5.1900000   8.9590000  10.7780000  -4.9160000
  11.3850000  11.4010000  -3.5330000  11.7020000  11.9890000  -2.6730000
  12.3100000  11.2680000  -4.0930000  10.6640000  11.9450000  -4.1440000
   9.0930000   6.5570000  -5.3130000   9.9020000   6.9170000  -5.7990000
   8.2350000   5.6300000  -5.9950000   7.2330000   6.0570000  -6.0380000
   7.9780000   4.1820000  -5.3090000   6.9010000   3.6620000  -5.3530000
   8.7810000   5.3800000  -7.4620000   9.1110000   6.3360000  -7.8680000
   7.9760000   4.8640000  -7.9860000   9.5790000   4.6380000  -7.4230000
   8.9840000   3.5640000  -4.6590000   9.9130000   3.9560000  -4.7160000
   8.7760000   2.3260000  -3.9440000   8.2300000   1.6270000  -4.5780000
   8.0150000   2.4440000  -2.6860000   7.0780000   1.6910000  -2.4710000
  10.1300000   1.7230000  -3.6670000   9.9970000   0.8140000  -3.0800000
  10.5640000   1.5120000  -4.6440000  10.8260000   2.3130000  -3.0710000
   8.2910000   3.4460000  -1.8580000   8.8890000   4.2000000  -2.1650000
   7.4820000   3.6430000  -0.7290000   7.4880000   2.7460000  -0.1100000
   6.0570000   4.1920000  -0.9650000   5.1080000   3.9680000  -0.1950000
   8.2390000   4.6900000   0.1040000   8.4290000   5.5420000  -0.5500000
   7.6570000   4.8730000   1.0070000   9.2300000   4.2810000   0.2990000
   5.8510000   4.7620000  -2.1510000   6.6600000   5.0740000  -2.6690000
   4.5100000   5.0600000  -2.6840000   3.8690000   5.5430000  -1.9470000
   3.7570000   3.8770000  -3.2010000   2.5690000   3.8380000  -2.9760000
   4.6940000   6.0760000  -3.8460000   5.0730000   7.0260000  -3.4690000
   3.8130000   6.3140000  -4.4420000   5.4100000   5.6460000  -4.5470000
   4.4700000   2.8940000  -3.7670000   5.4750000   2.9520000  -3.6840000
   3.7970000   1.5850000  -4.0630000   2.8630000   1.6880000  -4.6160000
   3.3640000   0.8600000  -2.7640000   2.2810000   0.2660000  -2.7600000
   4.8650000   0.7460000  -4.7680000   4.9610000   1.1130000  -5.7900000
   4.4860000  -0.2760000  -4.7990000   5.8590000   0.8810000  -4.3430000
   4.2020000   0.8240000  -1.7130000   5.0480000   1.3700000  -1.7910000
   3.8060000   0.3200000  -0.3800000   3.5560000  -0.7160000  -0.6080000
   2.5930000   1.0560000   0.1820000   1.7820000   0.4730000   0.9380000
   5.0250000   0.3380000   0.4980000   4.7080000   0.1400000   1.5210000
   5.6910000  -0.4460000   0.1360000   5.4740000   1.3300000   0.5410000
   2.5530000   2.3760000  -0.0510000   3.4030000   2.8770000  -0.2660000
   1.4690000   3.1540000   0.4440000   1.4380000   3.0590000   1.5300000
   0.1910000   2.6130000  -0.1520000  -0.7570000   2.3290000   0.5330000
   1.7070000   4.6000000   0.0680000   2.6890000   4.8780000   0.4510000
   0.9450000   5.1770000   0.5930000   1.6850000   4.8500000  -0.9920000
   0.2190000   2.4030000  -1.4700000   1.0990000   2.5860000  -1.9300000
  -0.9190000   1.9200000  -2.1900000  -1.7980000   2.5130000  -1.9380000
  -1.1570000   0.4370000  -1.7550000  -2.3010000   0.1900000  -1.3660000
  -0.6370000   1.9800000  -3.7440000  -0.1170000   2.9280000  -3.8790000
   0.0340000   1.2210000  -4.1460000  -1.5350000   2.0110000  -4.3610000
  -0.1780000  -0.4310000  -1.7390000   0.6600000  -0.1550000  -2.2310000
  -0.3310000  -1.7580000  -1.2500000  -1.1310000  -2.2160000  -1.8310000
  -0.8480000  -1.8410000   0.1900000  -1.5290000  -2.7810000   0.4150000
   0.9640000  -2.5600000  -1.4510000   0.8410000  -3.5880000  -1.1100000
   1.2500000  -2.5800000  -2.5020000   1.6830000  -2.0710000  -0.7930000
  -0.6400000  -0.8620000   1.0910000  -0.0770000  -0.0610000   0.8450000
  -1.1790000  -0.9910000   2.4870000  -1.1000000  -2.0200000   2.8380000
  -2.6070000  -0.5680000   2.5530000  -3.4080000  -1.1280000   3.2460000
  -0.2840000  -0.1160000   3.3530000   0.7200000  -0.4910000   3.1510000
  -0.4810000  -0.1730000   4.4240000  -0.4740000   0.9140000   3.0530000
  -2.9230000   0.5310000   1.8070000  -2.1500000   0.9060000   1.2750000
  -4.3120000   0.9800000   1.5150000  -4.7500000   1.1850000   2.4910000
  -5.1850000  -0.1070000   0.9160000  -6.2770000  -0.3800000   1.4810000
  -4.2000000   2.3320000   0.7640000  -3.7790000   2.1710000  -0.2290000
  -3.6230000   3.0950000   1.2870000  -5.2190000   2.6870000   0.6090000
  -4.7870000  -0.6540000  -0.2120000  -3.8750000  -0.3450000  -0.5190000
  -5.3110000  -1.8020000  -0.8750000  -6.1880000  -1.5140000  -1.4540000
  -5.6500000  -2.8670000   0.1640000  -6.7460000  -3.4000000   0.2220000
  -4.4570000  -2.4170000  -2.0020000  -3.4650000  -2.6320000  -1.6040000
  -4.2180000  -1.6970000  -2.7850000  -4.9190000  -3.2970000  -2.4500000
  -4.7220000  -3.2860000   1.0030000  -3.8150000  -2.8440000   0.9650000
  -4.9130000  -4.2940000   1.9900000  -5.4570000  -5.0690000   1.4490000
  -5.8030000  -3.8760000   3.1580000  -6.4700000  -4.6880000   3.7370000
  -3.5610000  -4.8230000   2.4070000  -3.7180000  -5.5880000   3.1670000
  -2.9620000  -4.0030000   2.8060000  -3.1220000  -5.3480000   1.5590000
  -5.9200000  -2.5920000   3.4790000  -5.2700000  -1.9590000   3.0350000
  -6.9120000  -2.0620000   4.4620000  -7.0960000  -2.8260000   5.2180000
  -8.3510000  -2.0100000   3.8630000  -9.3720000  -2.3620000   4.5140000
  -6.5450000  -0.6550000   4.9540000  -6.1310000  -0.0470000   4.1500000
  -5.8610000  -0.8380000   5.7830000  -7.3700000  -0.0980000   5.3960000
  -8.5090000  -1.5840000   2.5520000  -7.6610000  -1.2690000   2.1030000
  -9.7620000  -1.6050000   1.8630000 -10.5150000  -1.1350000   2.4960000
 -10.2030000  -3.0880000   1.6760000 -11.3930000  -3.4020000   1.6570000
  -9.4610000  -0.7930000   0.4840000  -9.1440000   0.2150000   0.7480000
 -10.3920000  -0.6120000  -0.0550000  -8.7330000  -1.2490000  -0.1860000
  -9.1720000  -4.0160000   1.5880000  -8.2020000  -3.7360000   1.5670000
  -9.5030000  -5.4500000   1.2880000 -10.2720000  -5.4820000   0.5160000
 -10.0610000  -6.2600000   2.5410000 -10.9570000  -7.1190000   2.5160000
  -8.2050000  -6.1530000   0.8230000  -7.9280000  -5.7560000  -0.1540000
  -8.3830000  -7.2100000   0.6270000  -7.4130000  -6.0790000   1.5690000
  -9.4400000  -5.8740000   3.6190000  -8.6960000  -5.1950000   3.5440000
  -9.7380000  -6.3220000   4.9560000  -9.5880000  -7.4000000   4.9970000
 -11.1760000  -5.8660000   5.3930000 -11.9460000  -6.6150000   5.9710000
  -8.5780000  -5.7700000   5.8640000  -8.3920000  -4.7200000   5.6380000
  -7.6440000  -6.3070000   5.7020000  -8.9040000  -5.8440000   6.9020000
 -11.4330000  -4.6400000   4.9540000 -10.7140000  -4.1920000   4.4030000
 -12.7040000  -4.0020000   5.2620000 -12.9640000  -4.0940000   6.3170000
 -13.8370000  -4.7540000   4.3960000 -14.8160000  -5.2090000   4.9680000
 -12.6400000  -2.4580000   4.9690000 -13.6170000  -2.0710000   5.2550000
 -11.9080000  -1.9680000   5.6120000 -12.5130000  -2.3560000   3.8910000
 -13.6270000  -4.8220000   3.0440000 -12.9000000  -4.2780000   2.6010000
 -14.4970000  -5.5940000   2.1800000 -15.4730000  -5.1130000   2.1220000
 -14.7370000  -6.9990000   2.7530000 -15.8760000  -7.4480000   2.6460000
 -13.9920000  -5.6380000   0.7310000 -13.8040000  -4.6210000   0.3870000
 -14.7420000  -5.9700000   0.0140000 -13.1470000  -6.3250000   0.6880000
 -13.7500000  -7.6720000   3.3560000 -12.7910000  -7.3570000   3.3130000
 -13.9570000  -9.0140000   3.8870000 -14.6110000  -9.5900000   3.2320000
 -14.7120000  -8.9770000   5.2160000 -15.5120000  -9.9710000   5.3390000
 -12.6200000  -9.8060000   4.0020000 -12.9240000 -10.8370000   4.1860000
 -12.0270000  -9.7440000   3.0900000 -11.9960000  -9.5440000   4.8570000
 -14.4230000  -8.0300000   6.1020000 -13.8070000  -7.2840000   5.8120000
 -15.2610000  -7.8520000   7.2820000 -15.4460000  -8.7850000   7.8140000
 -16.7290000  -7.4910000   7.0400000 -17.5810000  -7.8150000   7.9010000
 -14.6030000  -6.9870000   8.3350000 -14.9500000  -7.2850000   9.3250000
 -14.7240000  -5.9310000   8.0930000 -13.5440000  -7.2440000   8.3690000
 -16.9580000  -6.8690000   5.9140000 -16.1430000  -6.7390000   5.3320000
 -18.3200000  -6.5120000   5.4660000 -18.7940000  -6.0920000   6.3530000
 -19.1040000  -7.7900000   5.0050000 -20.2670000  -7.9870000   5.1740000
 -18.2700000  -5.3910000   4.2990000 -19.1740000  -5.4260000   3.6900000
 -17.3660000  -5.6330000   3.7390000 -18.0730000  -4.0270000   4.8940000
 -17.2930000  -4.1380000   5.6470000 -17.5330000  -3.0220000   3.8490000
 -16.9390000  -3.4860000   3.0620000 -16.9080000  -2.3190000   4.4000000
 -18.4080000  -2.5720000   3.3790000 -19.3900000  -3.5020000   5.5060000
 -19.8290000  -4.1560000   6.2590000 -20.1610000  -3.3280000   4.7550000
 -19.2200000  -2.5380000   5.9870000 -18.3170000  -8.7420000   4.4430000
 -17.3250000  -8.5510000   4.4700000 -18.8840000  -9.9630000   3.7400000
 -19.7620000  -9.6060000   3.2010000 -19.3280000 -11.1400000   4.6320000
 -20.1590000 -11.9500000   4.2550000 -17.7950000 -10.4040000   2.6840000
 -17.3620000  -9.6260000   2.0560000 -18.3200000 -11.1450000   2.0810000
 -16.9550000 -10.8480000   3.2190000 -18.8140000 -11.2430000   5.9090000
 -18.1230000 -10.5500000   6.1580000 -19.2160000 -12.1050000   7.0160000
 -19.5610000 -13.0550000   6.6080000 -20.4590000 -11.4450000   7.6510000
 -21.4450000 -12.2210000   7.6730000 -18.0780000 -12.3370000   8.0020000
 -17.3330000 -13.0270000   7.6060000 -18.4470000 -12.8460000   8.8920000
 -17.5130000 -11.4290000   8.2110000 -20.4530000 -10.3570000   8.2390000
  -2.8250000  -2.4330000   5.9310000  -1.3130000  -2.7230000   5.9150000
  -0.6070000  -1.7330000   5.0240000   0.9020000  -2.0090000   4.9120000
   1.1760000  -3.1820000   4.0160000   1.7620000  -2.6650000   2.7170000
   1.4480000  -3.6670000   1.5380000   2.0170000  -4.1700000   4.6940000
   1.6490000  -5.5430000   4.6030000   2.5000000  -6.3880000   4.7680000
   0.2550000  -5.9670000   4.2430000  -0.7230000  -6.2620000   5.1570000
  -2.1340000  -6.5380000   4.6970000  -2.3690000  -7.0850000   3.4520000
  -3.6890000  -7.2980000   3.0650000  -4.7740000  -6.9830000   3.8730000
  -6.0820000  -7.1790000   3.4390000  -6.2900000  -8.3420000   2.6270000
  -4.5060000  -6.4190000   5.0960000  -3.1890000  -6.1970000   5.5210000
  -3.1744950  -2.3659672   6.9718457  -3.0211982  -1.4808536   5.4162928
  -3.3595573  -3.2449882   5.4162928  -0.9155793  -2.6407752   6.9373971
  -1.1445829  -3.7394166   5.5296002  -1.0502593  -1.7853450   4.0186238
  -0.7309017  -0.7354431   5.4706863   1.3996028  -1.1188971   4.4995582
   1.2884680  -2.2404036   5.9155412   0.2458043  -3.7166642   3.7733683
   1.3226776  -1.6833833   2.4858624   2.8525169  -2.5727403   2.8277299
   1.1434857  -4.6387303   1.9539462   0.6338229  -3.2616193   0.9193062
   2.3479191  -3.7987712   0.9193062   0.0015077  -6.0462232   3.1755426
  -0.4788884  -6.2977233   6.2289764  -1.5354200  -7.3457266   2.7832953
  -3.8816205  -7.7356329   2.0743564  -6.4466170  -9.2176997   3.2740094
  -7.1756076  -8.1922158   1.9919695  -5.4073748  -8.5084603   1.9919695
  -5.3405387  -6.1361528   5.7544395  -2.9959113  -5.7522724   6.5083875
