
  315  0.0000000e+00
  -5.1030000   0.8290000   5.3930000  -4.9220000   1.0360000   4.4220000
  -5.6640000  -0.0100000   5.4140000  -5.6300000   1.5700000   5.8340000
  -3.8400000   0.4620000   6.0150000  -4.0980000   0.6020000   7.0650000
  -2.7310000   1.4340000   5.7260000  -1.6250000   1.0070000   5.2860000
  -3.4160000  -1.0490000   5.8350000  -3.0750000  -1.3180000   4.8350000
  -2.6010000  -1.0120000   6.5580000  -4.4310000  -2.0370000   6.2830000
  -4.6590000  -2.2380000   7.6390000  -4.1790000  -1.6880000   8.4350000
  -5.1700000  -2.7890000   5.3010000  -5.1800000  -2.5940000   4.2390000
  -5.5590000  -3.2090000   8.1070000  -5.7360000  -3.2280000   9.1730000
  -6.0800000  -3.8240000   5.7490000  -6.6690000  -4.4030000   5.0540000
  -6.3100000  -3.9090000   7.1380000  -7.1550000  -4.5050000   7.4480000
  -2.9200000   2.6840000   6.1380000  -3.8360000   3.0780000   6.2970000
  -1.8400000   3.6130000   6.5030000  -2.2070000   4.4240000   7.1320000
  -1.0060000   3.1280000   7.0100000  -1.1130000   4.3630000   5.3700000
  -0.5750000   5.4220000   5.6120000  -1.1790000   3.8800000   4.1400000
  -1.7610000   3.0570000   4.0720000  -0.3600000   4.2220000   3.0270000
   0.3960000   4.8390000   3.5130000  -0.9900000   5.1520000   1.9550000
  -1.9340000   5.9230000   2.2250000   0.3110000   2.9460000   2.5400000
  -0.4200000   2.2340000   2.1550000   0.9300000   3.0850000   1.6540000
   1.3190000   2.3120000   3.5120000   0.9560000   2.4510000   4.5300000
   2.2710000   2.8400000   3.4840000   1.4640000   0.8040000   3.3070000
   1.9300000   0.6750000   2.3300000   0.5070000   0.3040000   3.1550000
   2.3160000   0.1360000   4.3140000   3.2860000  -0.0790000   4.1360000
   2.0190000  -0.2660000   5.5550000   0.8710000   0.0240000   6.1390000
   0.7550000  -0.2860000   7.0930000   0.1460000   0.6350000   5.7910000
   2.9550000  -0.9360000   6.1060000   2.8140000  -1.2710000   7.0490000
   3.8910000  -0.6580000   5.8500000  -0.3840000   5.1800000   0.7680000
   0.5190000   4.7290000   0.7690000  -0.9370000   5.7350000  -0.4390000
  -0.7580000   6.8030000  -0.5600000  -2.0020000   5.5280000  -0.3370000
  -0.4870000   5.2590000  -1.8150000   0.1720000   4.1830000  -1.8980000
  -0.7270000   6.0770000  -2.8250000  -1.4770000   6.7420000  -2.7060000
  -0.1910000   5.7540000  -4.1350000  -0.3360000   4.7190000  -4.4470000
   1.3280000   6.0760000  -4.0750000   1.7670000   7.1880000  -3.8940000
  -0.7760000   6.6500000  -5.2330000  -0.7710000   7.7220000  -5.0390000
  -0.1620000   6.5550000  -6.1290000  -2.2030000   6.1230000  -5.4270000
  -2.1640000   5.0410000  -5.5530000  -2.7470000   6.4360000  -4.5360000
  -2.7650000   6.8870000  -6.5840000  -2.0850000   6.7070000  -7.4170000
  -2.8890000   7.9350000  -6.3110000  -4.2100000   6.4250000  -6.9350000
  -4.2760000   5.3420000  -6.8300000  -4.3360000   6.7300000  -7.9740000
  -5.3630000   7.0880000  -6.2030000  -6.2420000   6.8280000  -6.6280000
  -5.3570000   8.0870000  -6.3520000  -5.4500000   6.9560000  -5.2060000
   2.1270000   5.0250000  -4.2460000   1.6830000   4.1530000  -4.4960000
   3.5630000   4.9700000  -4.0800000   4.1030000   5.7940000  -4.5470000
   4.0920000   4.1840000  -4.6180000   4.1340000   5.0530000  -2.6530000
   5.0660000   4.2580000  -2.3230000   3.6040000   5.9430000  -1.7620000
   2.9820000   6.6930000  -2.0290000   4.1130000   5.9870000  -0.3730000
   3.6540000   6.8030000   0.1860000   5.1630000   6.2810000  -0.4010000
   3.7900000   4.7830000   0.4970000   2.5870000   4.6160000   0.7510000
   4.7370000   3.9590000   0.9460000   5.6980000   4.2540000   0.8490000
   4.5100000   2.5780000   1.4230000   4.9590000   2.4180000   2.4030000
   3.4330000   2.4620000   1.5440000   5.0930000   1.4280000   0.5930000
   5.0750000   0.2200000   1.0090000   5.7060000   1.6950000  -0.5370000
   5.7060000   2.6540000  -0.8540000   6.4400000   0.7210000  -1.3400000
   5.8890000  -0.2050000  -1.5020000   7.7610000   0.3010000  -0.6350000
   8.5700000   1.1490000  -0.2270000   6.8080000   1.4580000  -2.6560000
   7.5630000   2.2280000  -2.4960000   5.9460000   1.9110000  -3.1460000
   7.3850000   0.4140000  -3.6300000   6.8220000  -0.7100000  -3.5690000
   8.2220000   0.8030000  -4.4710000   7.9370000  -1.0070000  -0.4700000
   7.3220000  -1.6460000  -0.9540000   9.0250000  -1.6950000   0.2820000
   9.0340000  -2.7240000  -0.0760000  10.0220000  -1.3470000   0.0110000
   8.7920000  -1.7440000   1.8320000   9.6120000  -2.2400000   2.5610000
   7.6000000  -1.2500000   2.3140000   7.0330000  -0.8570000   1.5760000
   7.2080000  -0.9090000   3.7080000   8.0380000  -1.1930000   4.3560000
   5.9860000  -1.6910000   4.3010000   4.8420000  -1.3540000   3.9680000
   7.1260000   0.6040000   3.8130000   6.2430000   0.9890000   3.3020000
   7.1290000   0.8320000   4.8790000   8.2680000   1.4220000   3.2370000
   8.1780000   1.3600000   2.1520000   9.2240000   0.9660000   3.4920000
   8.2900000   2.8130000   3.9120000   7.4720000   3.6890000   3.5430000
   9.1520000   3.1300000   4.7780000   6.2760000  -2.6840000   5.1090000
   7.2160000  -2.7640000   5.4700000   5.1940000  -3.4440000   5.7250000
   4.6610000  -2.9190000   6.5170000   5.6130000  -4.2670000   6.3040000
   4.1860000  -4.1640000   4.7720000   4.5080000  -4.5600000   3.6940000
   2.8720000  -4.1300000   5.1730000   2.6780000  -3.9390000   6.1450000
   1.7060000  -4.4780000   4.3520000   1.7470000  -5.5670000   4.3120000
   1.7710000  -3.9620000   2.8340000   1.4530000  -4.6500000   1.8570000
   0.4030000  -3.8500000   5.0290000   0.5860000  -2.7870000   5.1830000
   0.2950000  -4.5310000   6.4040000   0.3610000  -5.6180000   6.4590000
   1.1520000  -4.3040000   7.0390000  -0.8030000  -3.9710000   4.2020000
  -0.6710000  -3.4210000   3.2710000  -0.9970000  -5.0300000   4.0330000
  -1.6790000  -3.5080000   4.6580000  -0.9960000  -4.1350000   7.2000000
  -0.8770000  -4.4990000   8.2200000  -0.9950000  -3.0540000   7.3420000
  -1.8730000  -4.5190000   6.6790000   2.3450000  -2.7590000   2.7130000
   2.8080000  -2.4120000   3.5400000   2.6610000  -2.1300000   1.3840000
   1.7510000  -1.8510000   0.8540000   3.1600000  -1.1910000   1.6250000
   3.5250000  -2.9830000   0.4570000   3.1870000  -3.1510000  -0.7540000
   4.6570000  -3.4000000   0.9990000   4.7530000  -3.3120000   2.0000000
   5.7050000  -4.1360000   0.3130000   6.7340000  -4.0540000   0.6650000
   5.6590000  -3.7420000  -0.7020000   5.3460000  -5.6080000   0.0290000
   5.7450000  -6.1240000  -1.0110000   4.4950000  -6.1330000   0.9300000
   4.3850000  -5.6620000   1.8160000   3.8110000  -7.3940000   0.8210000
   4.6040000  -8.1280000   0.6720000   3.3740000  -7.5360000   1.8100000
   2.7930000  -7.4340000  -0.2750000   2.6660000  -8.4400000  -0.9790000
   2.1350000  -6.3660000  -0.5910000   2.3740000  -5.5200000  -0.0930000
   1.3310000  -6.2790000  -1.8130000   0.9060000  -7.2500000  -2.0630000
   2.2310000  -5.9010000  -3.0210000   2.1150000  -6.5390000  -4.0610000
   0.2700000  -5.1840000  -1.4770000  -0.2610000  -4.8080000  -2.3510000
   0.7380000  -4.3250000  -0.9970000  -0.7680000  -5.7880000  -0.5950000
  -0.4010000  -6.3210000   0.2830000  -1.7070000  -4.7880000  -0.0150000
  -1.1750000  -4.0250000   0.5540000  -2.2420000  -5.2890000   0.7920000
  -2.4820000  -4.3990000  -0.6760000  -1.6510000  -6.7340000  -1.3180000
  -0.9980000  -7.5180000  -1.7010000  -2.4580000  -7.1740000  -0.7310000
  -2.0400000  -6.2410000  -2.2090000   3.0750000  -4.8850000  -2.9100000
   3.1370000  -4.3440000  -2.0590000   3.7030000  -4.3540000  -4.0840000
   4.2030000  -5.1540000  -4.6290000   4.4770000  -3.6320000  -3.8220000
   2.7440000  -3.7500000  -5.1030000   3.2420000  -3.2110000  -6.0770000
   1.4350000  -3.8480000  -4.8830000   1.1620000  -4.2360000  -3.9910000
   0.3760000  -3.6120000  -5.8340000  -0.4950000  -4.1370000  -5.4420000
   0.6520000  -3.9910000  -6.8180000   0.0690000  -2.1450000  -5.9620000
   0.3260000  -1.3730000  -5.0720000  -0.3770000  -1.5450000  -7.1300000
  -0.4120000  -2.0430000  -8.0080000  -0.3080000  -0.0770000  -7.3750000
   0.7100000   0.3120000  -7.3290000  -1.1880000   0.6690000  -6.3110000
  -2.3900000   0.6960000  -6.3830000  -0.7550000   0.2190000  -8.7840000
  -0.5900000   1.2780000  -8.9800000  -0.1750000  -0.3870000  -9.4800000
  -2.1390000  -0.0240000  -9.0170000  -2.6230000   0.1930000  -8.2170000
  -0.5590000   1.2810000  -5.2620000   0.4490000   1.2400000  -5.2880000
  -1.2450000   1.9360000  -4.1590000  -0.4860000   2.3720000  -3.5090000
  -1.8870000   2.7250000  -4.5510000  -2.1370000   1.0110000  -3.3320000
  -3.1430000   1.4910000  -2.8450000  -1.8690000  -0.3150000  -3.3390000
  -1.0130000  -0.6630000  -3.7480000  -2.8000000  -1.3590000  -2.9150000
  -2.2980000  -2.3260000  -2.9110000  -3.1410000  -1.1470000  -1.9020000
  -4.0200000  -1.4800000  -3.8330000  -4.0540000  -2.2070000  -4.8220000
  -5.0550000  -0.7890000  -3.4110000  -4.9290000  -0.1530000  -2.6370000
  -6.2790000  -0.6980000  -4.0510000  -6.4520000  -1.4970000  -4.7720000
  -6.5690000   0.6200000  -4.8860000  -7.6790000   0.9430000  -5.3150000
  -7.3930000  -0.9630000  -2.9840000  -8.3790000  -0.9570000  -3.4470000
  -7.2740000  -0.1510000  -2.2660000  -7.2160000  -2.2930000  -2.2550000
  -7.8690000  -3.4010000  -2.6520000  -8.5820000  -3.4790000  -3.4590000
  -6.4050000  -2.8080000  -1.1920000  -7.5220000  -4.5410000  -1.9610000
  -7.8920000  -5.4490000  -2.2040000  -6.6550000  -4.1960000  -0.9660000
  -5.5090000  -2.1660000  -0.3010000  -5.4370000  -1.0980000  -0.4420000
  -6.0400000  -4.9210000  -0.0070000  -6.2260000  -5.9820000   0.0690000
  -4.8270000  -2.9360000   0.7050000  -4.0750000  -2.4540000   1.3130000
  -5.1560000  -4.2400000   0.8560000  -4.5400000  -4.8040000   1.5400000
  -5.6240000   1.5500000  -4.8150000  -4.7190000   1.2080000  -4.5240000
  -5.8300000   2.8980000  -5.1030000  -6.4170000   3.0390000  -6.0110000
  -4.8520000   3.3720000  -5.1760000  -6.5200000   3.7400000  -4.0340000
  -7.5150000   4.4350000  -4.2970000  -6.1630000   3.5020000  -2.7290000
  -5.3150000   2.9650000  -2.6110000  -6.7560000   4.1110000  -1.5380000
  -7.8400000   4.2230000  -1.5630000  -6.1310000   5.5270000  -1.2320000
  -4.8590000   5.6500000  -1.1640000  -6.4710000   3.1400000  -0.3170000
  -6.6160000   3.6940000   0.6110000  -5.4320000   2.8420000  -0.4560000
  -7.3590000   1.9050000  -0.2390000  -6.9900000   0.9900000   0.4930000
  -8.4800000   1.7300000  -0.8320000  -6.8170000   6.5690000  -1.2940000
  -5.4200000   4.6590000   3.2530000  -5.5760000   3.3000000   2.9160000
  -4.5610000   2.6330000   2.2840000  -4.5640000   2.6050000   0.8930000
  -3.5510000   1.9430000   0.2130000  -2.5230000   1.3130000   0.9090000
  -1.4160000   0.5870000   0.1920000  -1.3400000  -0.6160000   0.3350000
  -0.4500000   1.2620000  -0.7040000   0.4140000   0.5440000  -1.5210000
   1.3090000   1.1950000  -2.3390000   1.3560000   2.5800000  -2.3570000
   0.4870000   3.3130000  -1.5610000  -0.4350000   2.6630000  -0.7440000
  -2.5300000   1.3390000   2.2990000  -1.5320000   0.7130000   2.9720000
  -3.5470000   1.9930000   2.9750000  -5.4076905   4.7662347   4.3476914
  -4.4729674   5.0335057   2.8372179  -6.2575384   5.2383571   2.8372179
  -5.3673629   3.1063652   0.3333207  -3.5606057   1.9159192  -0.8866246
   0.3825252  -0.5555279  -1.5140888   1.9887697   0.6146147  -2.9801444
   2.0814481   3.0978449  -3.0016408   0.5265410   4.4121952  -1.5753667
  -1.1444977   3.2435373  -0.1360613  -1.5212693   0.7214942   3.9619054
  -3.5486246   2.0037620   4.0749462
