
  474  0.0000000e+00
   0.8180000 -10.1200000   0.9290000   0.0500000 -10.6460000   0.5350000
   1.6460000 -10.6710000   0.7530000   0.9050000  -9.2580000   0.4090000
   0.5780000  -9.8970000   2.4130000   0.5650000 -10.8520000   2.9390000
  -0.9000000  -9.4340000   2.6800000  -1.5790000  -8.9140000   1.8040000
   1.6810000  -8.9380000   2.8970000   2.6070000  -9.0450000   2.3320000
   2.0190000  -9.1990000   3.9000000   1.3320000  -7.4750000   2.8210000
   1.4870000  -6.8060000   1.6310000   1.9560000  -7.2450000   0.7630000
   0.7760000  -6.8140000   3.9430000   0.7390000  -7.3170000   4.8980000
   1.0650000  -5.4850000   1.5480000   1.0310000  -4.9560000   0.6070000
   0.3300000  -5.5100000   3.8450000  -0.1770000  -5.0290000   4.6680000
   0.4630000  -4.8470000   2.6400000   0.1010000  -3.5640000   2.4540000
  -0.1140000  -3.1470000   3.2920000  -1.4350000  -9.4260000   3.9250000
  -0.9130000  -9.8440000   4.6820000  -2.8140000  -9.0080000   4.3520000
  -3.1710000  -8.3380000   3.5700000  -2.6590000  -8.1200000   5.6040000
  -1.9350000  -8.5010000   6.5240000  -3.7360000 -10.2240000   4.6250000
  -3.3070000 -10.7250000   5.4930000  -3.7700000 -11.0690000   3.5200000
  -4.4320000 -11.7430000   3.6920000  -5.1850000  -9.8470000   4.9760000
  -5.2760000  -8.9700000   5.6180000  -5.7520000  -9.7220000   4.0540000
  -5.6720000 -10.6660000   5.5060000  -3.3770000  -7.0150000   5.6980000
  -3.9480000  -6.8390000   4.8840000  -3.5500000  -6.2030000   6.9450000
  -3.4850000  -6.7740000   7.8710000  -4.9520000  -5.5480000   7.0040000
  -5.4890000  -5.2050000   5.9760000  -2.4500000  -5.1090000   7.0590000
  -1.4500000  -5.5360000   6.9800000  -2.4360000  -4.4180000   6.2150000
  -2.3260000  -4.4130000   8.3910000  -2.8950000  -4.7500000   9.4180000
  -1.4950000  -3.5410000   8.4720000  -5.6080000  -5.6240000   8.1520000
  -5.1530000  -6.1370000   8.8930000  -6.9970000  -5.2100000   8.3670000
  -7.1400000  -4.1980000   7.9870000  -7.1910000  -5.1310000   9.4360000
  -7.9310000  -6.1480000   7.6170000  -9.0150000  -5.7040000   7.2130000
  -7.5910000  -7.3990000   7.5080000  -6.8270000  -7.7970000   8.0350000
  -8.2930000  -8.3850000   6.5720000  -7.8840000  -9.3910000   6.6600000
  -9.3400000  -8.3500000   6.8730000  -8.1890000  -8.0550000   5.0560000
  -8.5410000  -8.8990000   4.2380000  -7.6050000  -6.9530000   4.6340000
  -7.3550000  -6.3400000   5.3970000  -7.3660000  -6.6070000   3.1550000
  -8.2030000  -6.9440000   2.5440000  -6.0350000  -7.1410000   2.6140000
  -5.0100000  -7.0630000   3.3070000  -7.5590000  -5.0420000   3.0670000
  -7.6640000  -4.7460000   2.0230000  -6.6440000  -4.5710000   3.4290000
  -8.8000000  -4.4560000   3.8030000  -9.5910000  -5.0890000   3.4010000
  -8.7370000  -4.6980000   4.8640000  -8.6990000  -2.9640000   3.5430000
  -7.6870000  -2.6690000   3.8180000  -8.7470000  -2.7190000   2.4820000
  -9.6360000  -2.2200000   4.4390000 -10.1400000  -2.7000000   5.1710000
  -9.7850000  -0.9230000   4.3460000  -9.3150000  -0.2050000   3.4460000
  -9.6420000   0.7440000   3.3330000  -8.6400000  -0.5630000   2.7860000
 -10.5570000  -0.2290000   5.1740000 -10.7370000   0.7590000   5.0620000
 -10.6500000  -0.6230000   6.0990000  -5.9950000  -7.4820000   1.3890000
  -6.8210000  -7.3130000   0.8330000  -4.9020000  -8.2330000   0.8770000
  -4.0080000  -8.1440000   1.4940000  -4.4140000  -7.7310000  -0.4680000
  -5.2030000  -7.2410000  -1.3180000  -5.3790000  -9.6210000   0.8150000
  -6.0710000  -9.9090000   1.6060000  -5.9830000  -9.8030000  -0.0740000
  -4.2740000 -10.5410000   0.9330000  -4.0800000 -10.5830000   1.8720000
  -3.0660000  -7.7880000  -0.5500000  -2.6110000  -8.2910000   0.1980000
  -2.2180000  -7.0170000  -1.4230000  -2.8580000  -6.8590000  -2.2910000
  -1.0090000  -7.7820000  -1.7850000  -0.3390000  -8.3730000  -0.9590000
  -1.8390000  -5.7540000  -0.7860000  -1.3620000  -5.1780000  -1.5790000
  -1.1310000  -6.0210000  -0.0020000  -2.9830000  -4.9730000  -0.0530000
  -4.0450000  -4.4580000  -0.7190000  -4.0350000  -4.4650000  -1.7990000
  -2.9670000  -4.9030000   1.4030000  -2.2090000  -5.3140000   2.0540000
  -5.0640000  -3.7190000  -0.0820000  -5.8700000  -3.3040000  -0.6680000
  -4.0200000  -4.2580000   2.0170000  -4.0080000  -4.1120000   3.0870000
  -5.0610000  -3.6740000   1.3050000  -5.7430000  -3.0280000   1.8380000
  -0.7840000  -7.8180000  -3.0740000  -1.5100000  -7.3880000  -3.6290000
   0.3010000  -8.6190000  -3.7420000   0.0400000  -9.6650000  -3.5790000
   1.7340000  -8.4140000  -3.2010000   2.4440000  -9.4320000  -2.8860000
   0.2080000  -8.2740000  -5.2430000  -0.7080000  -8.7370000  -5.6110000
   0.9500000  -8.7770000  -5.8620000   0.2400000  -7.1940000  -5.3930000
   2.1340000  -7.1720000  -2.9790000   1.5290000  -6.3960000  -3.2090000
   3.4680000  -6.7140000  -2.7450000   4.1750000  -7.4590000  -2.3800000
   3.5990000  -5.5700000  -1.6260000   3.1040000  -4.4770000  -1.8170000
   3.9620000  -6.0870000  -4.0390000   3.3020000  -5.2410000  -4.2310000
   5.4410000  -5.7160000  -3.8430000   5.9680000  -6.6480000  -3.6410000
   5.9360000  -5.3600000  -4.7470000   5.4960000  -5.0190000  -3.0070000
   3.9960000  -6.9690000  -5.2510000   4.5150000  -6.5710000  -6.1230000
   4.5510000  -7.8430000  -4.9110000   3.0000000  -7.3260000  -5.5140000
   3.9840000  -5.9960000  -0.4160000   4.0810000  -6.9890000  -0.2630000
   4.2420000  -5.0410000   0.6590000   3.3530000  -4.4870000   0.9590000
   5.2580000  -3.9920000   0.3470000   5.0170000  -2.8360000   0.6580000
   4.6060000  -5.8800000   1.9240000   5.6170000  -6.2870000   1.9190000
   3.9720000  -6.7550000   2.0690000   4.6020000  -4.9210000   3.1730000
   5.3880000  -4.1920000   2.9780000   3.6920000  -4.3240000   3.2370000
   4.8270000  -5.6180000   4.5140000   4.0970000  -6.4280000   4.5030000
   5.7900000  -6.1220000   4.5880000   4.7420000  -4.5990000   5.6270000
   3.8540000  -3.9960000   5.4420000   4.7020000  -5.1690000   6.5550000
   6.1290000  -3.8010000   5.7480000   6.9720000  -4.3460000   5.6360000
   6.2040000  -3.4640000   6.6970000   6.1400000  -2.9370000   5.2260000
   6.3930000  -4.3930000  -0.2280000   6.6230000  -5.3570000  -0.4250000
   7.5620000  -3.4180000  -0.2520000   7.7650000  -2.9880000   0.7290000
   7.2800000  -2.1990000  -1.2190000   7.7660000  -1.1050000  -0.9670000
   8.9050000  -4.1000000  -0.6830000   9.6690000  -3.3240000  -0.7110000
   9.1930000  -4.8470000   0.0580000   8.8300000  -4.5300000  -1.6810000
   6.5300000  -2.3560000  -2.2880000   6.0580000  -3.2160000  -2.5280000
   6.2980000  -1.2360000  -3.1980000   7.2760000  -0.8470000  -3.4830000
   5.4280000  -0.0890000  -2.6400000   5.7290000   1.1280000  -2.6810000
   5.5500000  -1.6660000  -4.4750000   4.5420000  -1.9310000  -4.1550000
   6.0590000  -2.5060000  -4.9480000   5.5450000  -0.9080000  -5.2590000
   4.3340000  -0.4940000  -1.8880000   4.0920000  -1.4700000  -1.7980000
   3.4960000   0.4810000  -1.1530000   3.2780000   1.2880000  -1.8530000
   4.1650000   1.0660000   0.0200000   3.9700000   2.3130000   0.1830000
   2.0870000  -0.0820000  -0.7710000   2.3350000  -0.7960000   0.0140000
   1.1760000   1.0520000  -0.1700000   1.6810000   1.7490000   0.4990000
   0.8460000   1.6070000  -1.0470000   0.2670000   0.6500000   0.2760000
   1.1850000  -0.8210000  -1.7860000   0.1540000  -0.8240000  -1.4340000
   1.3170000  -0.2990000  -2.7340000   1.4980000  -1.8510000  -1.9570000
   5.0570000   0.3920000   0.7540000   5.2450000  -0.5920000   0.6220000
   5.7710000   1.1900000   1.7330000   5.0470000   1.5110000   2.4820000
   6.6150000   2.3300000   1.1030000   6.6560000   3.5070000   1.5620000
   6.7190000   0.2870000   2.5020000   7.5980000   0.8580000   2.7990000
   7.1070000  -0.4580000   1.8070000   6.0400000  -0.4070000   3.6570000
   4.7990000  -0.2540000   3.8710000   6.7440000  -1.0830000   4.4660000
   7.3360000   1.9630000  -0.0030000   7.1380000   1.0500000  -0.3860000
   8.2030000   2.9360000  -0.6690000   8.9210000   3.2770000   0.0760000
   7.4710000   4.1870000  -1.2670000   7.8950000   5.3650000  -1.1260000
   9.1210000   2.2310000  -1.6150000   9.5360000   1.4430000  -0.9860000
   8.5720000   1.8160000  -2.4600000  10.2830000   3.1370000  -2.0320000
   9.9170000   3.9350000  -2.6780000  10.6450000   3.5990000  -1.1140000
  11.3960000   2.4770000  -2.8350000  11.2000000   1.7990000  -3.8400000
  12.5460000   2.6470000  -2.4290000   6.3290000   3.9390000  -1.8840000
   5.9330000   3.0100000  -1.8520000   5.4280000   4.9120000  -2.6010000
   6.0380000   5.6320000  -3.1470000   4.6360000   5.8860000  -1.5690000
   4.3640000   7.0810000  -1.8740000   4.5890000   4.1640000  -3.5720000
   4.4150000   4.8820000  -4.3740000   3.6410000   3.8060000  -3.1690000
   5.2190000   3.3620000  -3.9570000   4.3640000   5.3500000  -0.3180000
   4.6710000   4.4100000  -0.1120000   3.8870000   6.2660000   0.7830000
   3.0810000   6.9050000   0.4230000   5.0800000   7.1610000   1.2730000
   4.8660000   8.3440000   1.3900000   3.2880000   5.3420000   1.9270000
   4.0330000   4.5500000   2.0090000   1.9190000   4.7910000   1.4860000
   1.1680000   5.5810000   1.5080000   1.9630000   4.2920000   0.5190000
   3.1310000   6.1550000   3.1950000   2.5670000   5.4850000   3.8450000
   4.1410000   6.3250000   3.5680000   2.6420000   7.0980000   2.9500000
   1.3230000   3.8070000   2.5060000   0.4270000   3.3480000   2.0870000
   0.9910000   4.3670000   3.3800000   1.9910000   3.0150000   2.8420000
   6.3350000   6.6340000   1.3490000   6.4530000   5.6890000   1.0130000
   7.4850000   7.3680000   1.7730000   7.1330000   7.9510000   2.6240000
   7.8870000   8.3780000   0.6420000   7.9420000   9.5550000   0.9180000
   8.6200000   6.4110000   2.1480000   8.4120000   5.8920000   3.0840000
   8.8700000   5.7110000   1.3510000   9.4830000   7.0460000   2.3490000
   7.8310000   8.0090000  -0.5950000   7.5150000   7.0630000  -0.7520000
   8.1570000   8.8000000  -1.7920000   9.1170000   9.2580000  -1.5570000
   7.1360000   9.9170000  -2.1100000   7.2010000  10.5140000  -3.2130000
   8.4130000   7.8010000  -2.9370000   7.5030000   7.2180000  -3.0800000
   8.6770000   8.4190000  -3.7960000   9.1810000   7.0540000  -2.7380000
   6.1030000  10.1980000  -1.2890000   6.0590000   9.6830000  -0.4210000
   5.0960000  11.2680000  -1.5860000   5.6700000  12.1620000  -1.8310000
   4.5150000  11.4560000  -0.6820000   4.0440000  10.9990000  -2.6690000
   3.1830000  11.8690000  -2.8620000   4.0970000   9.8610000  -3.3240000
   4.7950000   9.1670000  -3.0950000   3.2630000   9.5400000  -4.5040000
   3.1550000  10.4470000  -5.0990000   1.9050000   9.0110000  -4.1030000
   0.8880000   9.2260000  -4.7840000   3.9600000   8.4660000  -5.3390000
   4.0590000   7.6270000  -4.6500000   3.3160000   8.1370000  -6.1540000
   5.2600000   8.7480000  -6.0030000   5.9780000   9.1850000  -5.3100000
   5.8690000   7.5060000  -6.6830000   5.0880000   7.0000000  -7.2510000
   6.1590000   6.7480000  -5.9560000   6.6620000   7.7740000  -7.3810000
   5.0200000   9.7560000  -7.1320000   4.3550000   9.3760000  -7.9080000
   4.4710000  10.6110000  -6.7360000   5.9610000  10.1120000  -7.5510000
   1.8290000   8.3410000  -2.9280000   2.6560000   8.3110000  -2.3480000
   0.5050000   8.0510000  -2.3320000  -0.2260000   8.6550000  -2.8690000
   0.4640000   8.5190000  -0.8940000   1.4100000   8.2890000  -0.1660000
   0.1400000   6.5910000  -2.4770000  -0.6310000   6.4950000  -1.7130000
  -0.4430000   6.3450000  -3.8740000  -1.4660000   6.7200000  -3.8670000
  -0.5020000   5.2690000  -4.0420000   0.1200000   6.8020000  -4.6890000
   1.2100000   5.5760000  -2.1500000   0.6960000   4.6680000  -1.8360000
   1.8500000   5.4440000  -3.0230000   1.6540000   6.0160000  -1.2570000
  -0.5780000   9.1530000  -0.3390000  -1.3240000   9.3660000  -0.9860000
  -0.8230000   9.4360000   1.0620000   0.1930000   9.5930000   1.4270000
  -1.3760000   8.3070000   2.0000000  -1.2190000   8.4380000   3.2020000
  -1.5670000  10.8080000   1.1910000  -1.8010000  10.9140000   2.2510000
  -2.6670000  10.9890000   0.2580000  -2.9730000  10.1120000   0.0160000
  -0.6800000  12.0060000   0.7940000   0.1880000  11.9910000   1.4540000
  -0.3700000  11.9180000  -0.2470000  -1.2120000  12.9400000   0.9730000
  -2.0810000   7.3360000   1.4630000  -2.3800000   7.4610000   0.5060000
  -2.6230000   6.1350000   2.1110000  -2.0260000   5.8810000   2.9870000
  -2.8030000   4.9870000   1.0890000  -2.8200000   5.1770000  -0.0860000
  -3.9730000   6.4510000   2.7140000  -4.0670000   5.6950000   3.4940000
  -4.0650000   7.4340000   3.1750000  -4.9850000   6.3830000   1.7810000
  -4.6970000   6.9050000   1.0300000  -3.0390000   3.7060000   1.6070000
  -3.2880000   3.6030000   2.5800000  -3.2730000   2.5180000   0.8330000
  -2.4070000   2.3930000   0.1830000  -4.5050000   2.6980000  -0.1070000
  -4.4400000   2.3010000  -1.2410000  -3.5070000   1.3950000   1.9160000
  -4.5930000   1.2980000   1.9250000  -3.2760000   1.6940000   2.9380000
  -2.8060000   0.0810000   1.5470000  -1.7540000   0.3680000   1.5330000
  -2.8580000  -0.8880000   2.7900000  -2.2880000  -1.7940000   2.5860000
  -2.5450000  -0.2530000   3.6190000  -3.9120000  -1.1430000   2.8940000
  -3.2780000  -0.6410000   0.2710000  -2.9190000  -0.0400000  -0.5640000
  -4.3650000  -0.6200000   0.1840000  -2.9090000  -1.6650000   0.2030000
  -5.6130000   3.4010000   0.3220000  -5.5440000   3.9620000   1.1590000
  -6.8100000   3.7510000  -0.4640000  -7.2760000   2.8770000  -0.9180000
  -6.5070000   4.6510000  -1.6550000  -7.2300000   4.6190000  -2.6560000
  -7.8400000   4.5220000   0.4430000  -8.4510000   5.1570000  -0.1980000
  -7.3110000   5.2290000   1.0820000  -8.8370000   3.5600000   1.1940000
  -8.6660000   2.3220000   1.1350000  -9.6850000   3.9890000   2.0640000
  -5.4710000   5.4330000  -1.6060000  -5.0120000   5.4700000  -0.7070000
  -4.9510000   6.1970000  -2.7200000  -5.7620000   6.7000000  -3.2470000
  -4.1900000   5.3330000  -3.7200000  -4.0260000   5.7540000  -4.9160000
  -4.0130000   7.3030000  -2.1840000  -3.4890000   7.8360000  -2.9780000
  -3.1790000   6.8580000  -1.6410000  -4.5450000   8.2690000  -1.1900000
  -5.7140000   8.6950000  -1.2590000  -3.7900000   8.6050000  -0.2730000
  -3.5610000   4.2230000  -3.3560000  -3.8450000   3.8360000  -2.4670000
  -2.7060000   3.4240000  -4.2110000  -2.1650000   4.1560000  -4.8110000
  -3.5570000   2.6540000  -5.2480000  -4.5860000   1.9990000  -4.8860000
  -1.6620000   2.5460000  -3.4670000  -1.2820000   3.1590000  -2.6500000
  -2.2080000   1.7330000  -2.9900000  -0.4740000   1.9480000  -4.2810000
   0.8150000   2.5030000  -4.1370000   0.9860000   3.3340000  -3.4690000
  -0.6740000   0.9020000  -5.2530000  -1.6810000   0.5560000  -5.4290000
   1.8750000   2.0220000  -4.9150000   2.8510000   2.4780000  -4.8310000
   0.3570000   0.4730000  -6.0720000   0.1220000  -0.2680000  -6.8220000
   1.6500000   0.9800000  -5.8520000   2.4780000   0.6240000  -6.4480000
  -3.2390000   2.8890000  -6.5060000  -2.4680000   3.4910000  -6.7550000
  -3.9140000   2.2940000  -7.6690000  -4.9340000   2.0150000  -7.4050000
  -3.1460000   1.0060000  -8.1890000  -1.9110000   1.1150000  -8.3590000
  -4.1880000   3.3520000  -8.7080000  -4.8110000   4.1300000  -8.2670000
  -3.2610000   3.9030000  -8.8670000  -4.8030000   2.8570000  -9.9490000
  -5.5290000   1.8610000  -9.9640000  -4.5530000   3.4830000 -10.9870000
  -3.8670000  -0.1260000  -8.3710000  -4.8120000  -0.2060000  -8.0250000
  -3.2690000  -1.4250000  -8.6100000  -2.1920000  -1.4440000  -8.4460000
  -3.5010000  -1.9920000 -10.0080000  -4.5900000  -1.7560000 -10.5640000
  -3.9750000  -2.3040000  -7.5800000  -5.0630000  -2.2690000  -7.6320000
  -3.6400000  -3.2860000  -7.9140000  -3.5420000  -2.2270000  -6.1440000
  -4.3590000  -1.8110000  -5.1260000  -5.2980000  -1.2970000  -5.2630000
  -2.3100000  -2.8350000  -5.4620000  -3.6620000  -1.9510000  -3.9240000
  -4.0170000  -1.5670000  -3.0600000  -2.4090000  -2.5170000  -4.0720000
  -1.0680000  -3.3350000  -5.9680000  -1.0180000  -3.4610000  -7.0400000
  -1.2960000  -2.7320000  -3.2010000  -1.3240000  -2.2900000  -2.2160000
   0.0300000  -3.5650000  -5.0750000   0.9830000  -3.9130000  -5.4440000
  -0.1060000  -3.3810000  -3.6770000   0.7140000  -3.4760000  -2.9810000
  -2.6680000  -2.7660000 -10.5720000   0.5390000   2.0910000   3.9060000
  -0.1880000   0.8600000   4.1210000  -1.5420000   0.9020000   4.2820000
  -2.2620000   2.0940000   4.2580000  -3.6340000   2.0830000   4.4350000
  -4.3040000   0.8870000   4.6220000  -5.7880000   0.8580000   4.8040000
  -6.3210000  -0.1470000   5.2240000  -6.6220000   2.0380000   4.4940000
  -7.5250000   2.5130000   5.4400000  -8.3030000   3.6300000   5.1490000
  -8.2180000   4.2580000   3.9140000  -7.3460000   3.7530000   2.9620000
  -6.5460000   2.6470000   3.2510000  -3.5860000  -0.3170000   4.6500000
  -4.2570000  -1.4930000   4.8450000  -2.2020000  -0.2910000   4.4810000
   0.8018000   2.5360000   4.8770000   1.4575000   1.8801000   3.3387000
  -0.0892000   2.7935000   3.3387000  -1.7378000   3.0477000   4.0977000
  -4.1947000   3.0293000   4.4270000  -7.6236000   2.0086000   6.4125000
  -8.9955000   4.0209000   5.9091000  -8.8332000   5.1429000   3.6941000
  -7.2843000   4.2277000   1.9716000  -5.8532000   2.2573000   2.4906000
  -3.7599000  -2.3489000   4.8665000  -1.6320000  -1.2315000   4.5068000
