
  670  0.0000000e+00
  -9.1890000  -8.4840000   8.3360000  -8.7810000  -8.2000000   9.2150000
  -8.4080000  -8.8990000   7.8460000  -9.9820000  -9.0960000   8.4630000
  -9.7800000  -7.3600000   7.6400000 -10.4510000  -7.6920000   6.8480000
  -8.7060000  -6.4000000   7.0240000  -8.7980000  -6.1720000   5.8050000
 -10.7780000  -6.5700000   8.5400000 -11.6780000  -6.3450000   7.9670000
 -10.9510000  -7.1840000   9.4240000 -10.2000000  -5.3050000   9.1590000
 -10.4240000  -4.0770000   8.6040000 -10.7960000  -3.9940000   7.5930000
  -9.6570000  -5.3270000  10.4790000  -9.5460000  -6.2100000  11.0920000
 -10.0490000  -2.8840000   9.2430000 -10.1300000  -1.9110000   8.7810000
  -9.4060000  -4.1590000  11.2290000  -9.1340000  -4.1610000  12.2740000
  -9.5290000  -2.9210000  10.5730000  -9.2050000  -1.7890000  11.1950000
 -10.0270000  -1.3000000  11.2780000  -7.7050000  -5.8580000   7.7240000
  -7.6600000  -5.9930000   8.7240000  -6.8220000  -4.7800000   7.1530000
  -7.4780000  -3.9440000   6.9100000  -6.1950000  -5.3510000   5.9230000
  -6.2940000  -4.5840000   4.9660000  -5.5900000  -4.3270000   8.0890000
  -4.9530000  -5.2110000   8.0940000  -6.1110000  -4.1140000   9.4990000
  -6.7070000  -3.2020000   9.5100000  -6.6640000  -4.9810000   9.8630000
  -4.7200000  -3.2170000   7.4340000  -5.3820000  -2.3540000   7.3580000
  -4.3020000  -3.5260000   6.4760000  -4.0240000  -3.0020000   8.2450000
  -4.9470000  -3.9000000  10.5370000  -4.3610000  -3.0410000  10.2090000
  -4.3450000  -4.7850000  10.7440000  -5.5080000  -3.7090000  11.4520000
  -5.6380000  -6.6060000   5.9650000  -5.6010000  -7.0740000   6.8590000
  -4.7350000  -7.0000000   4.8280000  -4.2170000  -6.0890000   4.5280000
  -5.4910000  -7.3740000   3.5340000  -4.9230000  -7.3140000   2.4810000
  -3.7970000  -8.1640000   5.3700000  -4.4230000  -8.9890000   5.7110000
  -3.2080000  -8.5260000   4.5270000  -2.8310000  -7.9010000   6.4640000
  -3.1440000  -7.4060000   7.5550000  -1.6150000  -8.2830000   6.3310000
  -0.9700000  -8.1420000   7.0950000  -1.1790000  -8.6410000   5.4930000
  -6.6990000  -7.8430000   3.6770000  -7.1220000  -7.9460000   4.5890000
  -7.6500000  -7.9590000   2.5080000  -7.1190000  -8.6570000   1.8610000
  -7.9520000  -6.7480000   1.6690000  -8.2610000  -6.8220000   0.4940000
  -8.8640000  -8.7100000   3.0680000  -9.6280000  -8.8560000   2.3040000
  -9.2500000  -8.0730000   3.8630000  -8.5750000 -10.0750000   3.5940000
  -8.8350000 -10.4360000   4.7490000  -7.9810000 -10.8060000   2.8620000
  -7.7150000  -5.5480000   2.2020000  -7.5570000  -5.3570000   3.1810000
  -7.6190000  -4.2900000   1.3990000  -8.4290000  -4.3720000   0.6740000
  -6.2500000  -3.9190000   0.8180000  -6.2150000  -2.9400000   0.0950000
  -7.8390000  -3.0780000   2.3440000  -7.2170000  -2.9160000   3.2240000
  -7.7950000  -2.1770000   1.7330000  -9.1620000  -3.1620000   2.8790000
  -9.3630000  -4.0670000   3.1280000  -5.2130000  -4.7470000   1.1120000
  -5.3270000  -5.5280000   1.7420000  -3.8310000  -4.4190000   0.6570000
  -3.5120000  -3.4530000   1.0480000  -3.6380000  -4.3480000  -0.8920000
  -3.4490000  -3.2760000  -1.4300000  -3.0390000  -5.4810000   1.3310000
  -3.3760000  -5.6120000   2.3590000  -3.0720000  -6.4350000   0.8050000
  -1.5950000  -5.0550000   1.5320000  -1.3020000  -4.1100000   2.4900000
  -2.1550000  -3.6350000   2.9500000  -0.5710000  -5.6430000   0.7750000
  -0.8660000  -6.3330000  -0.0020000   0.0450000  -3.7720000   2.7480000
   0.2380000  -2.9010000   3.3560000   0.7730000  -5.3200000   0.9970000
   1.5610000  -5.6980000   0.3620000   1.1160000  -4.4090000   1.9900000
   2.1180000  -4.0510000   2.1780000  -3.7120000  -5.5120000  -1.5650000
  -3.7470000  -6.3440000  -0.9940000  -3.7600000  -5.7390000  -3.0450000
  -2.8300000  -5.3310000  -3.4420000  -4.8640000  -4.9570000  -3.7240000
  -4.6150000  -4.2230000  -4.6480000  -3.9040000  -7.2130000  -3.3430000
  -4.7080000  -7.5250000  -2.6770000  -2.6040000  -7.9860000  -2.8650000
  -1.7110000  -7.6010000  -3.3560000  -2.4170000  -7.7750000  -1.8120000
  -4.3300000  -7.5300000  -4.7260000  -4.2020000  -8.5940000  -4.9220000
  -3.7570000  -6.8000000  -5.2970000  -5.3730000  -7.2670000  -4.9060000
  -2.6340000  -9.5120000  -2.9510000  -3.4490000  -9.9690000  -2.3890000
  -1.7460000  -9.8970000  -2.4500000  -2.7890000  -9.9540000  -3.9350000
  -6.0390000  -5.0110000  -3.0800000  -6.0570000  -5.6040000  -2.2630000
  -7.2040000  -4.0320000  -3.3310000  -7.6170000  -4.3160000  -4.2990000
  -6.8050000  -2.5270000  -3.6150000  -7.2190000  -1.9980000  -4.6490000
  -8.3520000  -4.0760000  -2.2550000  -8.5610000  -5.0170000  -1.7460000
  -8.2340000  -3.2560000  -1.5470000  -9.6070000  -3.7130000  -3.0990000
  -9.8920000  -4.6050000  -3.6570000  -9.4000000  -2.9880000  -3.8860000
 -10.8790000  -3.2530000  -2.2920000 -10.5190000  -2.4170000  -1.6930000
 -11.6620000  -2.8280000  -2.9210000 -11.4790000  -4.3090000  -1.3740000
 -12.1320000  -4.8610000  -2.0500000 -10.7050000  -4.8640000  -0.8450000
 -12.4240000  -3.7720000  -0.3640000 -12.5440000  -4.5860000   0.2220000
 -13.3150000  -3.5490000  -0.7840000 -12.0930000  -2.9800000   0.1690000
  -5.8060000  -1.9490000  -2.9150000  -5.3640000  -2.6030000  -2.2850000
  -5.3210000  -0.5830000  -3.1440000  -6.0610000  -0.0820000  -3.7690000
  -4.0420000  -0.6210000  -3.9610000  -3.9580000   0.0520000  -4.9400000
  -5.3190000   0.2220000  -1.8750000  -6.1130000  -0.1740000  -1.2430000
  -5.6360000   1.7330000  -2.0060000  -6.2310000   1.9920000  -2.8820000
  -4.6720000   2.2070000  -2.1930000  -4.0750000   0.0040000  -1.0490000
  -4.1190000  -0.9550000  -0.5320000  -3.1500000  -0.0030000  -1.6240000
  -4.0420000   0.8330000  -0.3420000  -6.3620000   2.2320000  -0.7610000
  -6.6160000   3.2750000  -0.9480000  -7.2700000   1.6530000  -0.5930000
  -5.7880000   2.1800000   0.1640000  -3.0390000  -1.4960000  -3.6950000
  -2.9900000  -1.9660000  -2.8030000  -1.8490000  -1.4950000  -4.6300000
  -1.4940000  -0.4650000  -4.6360000  -2.0040000  -1.7990000  -6.0430000
  -1.2560000  -1.2690000  -6.8840000  -0.8320000  -2.3970000  -4.0370000
  -1.3210000  -3.3380000  -3.7850000   0.0060000  -2.4360000  -4.7310000
  -0.2060000  -1.8250000  -2.7630000   0.7490000  -1.0380000  -2.8390000
  -0.6310000  -2.3190000  -1.6760000  -0.0260000  -2.3120000  -0.8670000
  -1.4020000  -2.9640000  -1.7690000  -3.0700000  -2.5240000  -6.3760000
  -3.7790000  -2.7430000  -5.6910000  -3.4720000  -2.5690000  -7.7790000
  -2.6250000  -2.9660000  -8.3390000  -3.9020000  -1.1740000  -8.3200000
  -3.2530000  -0.6830000  -9.2320000  -4.4960000  -3.6020000  -8.0740000
  -4.1260000  -4.5380000  -7.6550000  -5.4020000  -3.3280000  -7.5340000
  -4.8020000  -3.7010000  -9.5570000  -3.8770000  -4.4310000 -10.4190000
  -3.0010000  -4.8670000  -9.9620000  -5.9250000  -3.1410000 -10.2470000
  -6.7570000  -2.6600000  -9.7540000  -4.0370000  -4.5180000 -11.8150000
  -3.3700000  -5.1060000 -12.4280000  -6.0250000  -3.2100000 -11.6390000
  -6.9330000  -2.9200000 -12.1470000  -5.0810000  -3.8730000 -12.4590000
  -5.0480000  -3.8770000 -13.8260000  -4.1520000  -4.1690000 -14.0110000
  -4.9140000  -0.5800000  -7.7110000  -5.5200000  -1.0770000  -7.0750000
  -5.3750000   0.7290000  -8.1480000  -5.6900000   0.6400000  -9.1880000
  -4.4060000   1.8540000  -8.1240000  -4.3300000   2.6390000  -9.0830000
  -6.5500000   1.1750000  -7.2700000  -7.0590000   2.0040000  -7.7630000
  -6.1350000   1.4870000  -6.3120000  -7.6390000   0.0430000  -7.1710000
  -7.2220000  -0.9270000  -6.8980000  -8.5240000   0.6330000  -6.0710000
  -9.1620000   1.4130000  -6.4870000  -7.9950000   0.9170000  -5.1620000
  -9.1140000  -0.1440000  -5.5840000  -8.4180000  -0.1350000  -8.4490000
  -8.9300000   0.8140000  -8.6080000  -7.6530000  -0.1520000  -9.2260000
  -9.1340000  -0.9570000  -8.4780000  -3.5250000   1.9270000  -7.0950000
  -3.6500000   1.1960000  -6.4090000  -2.3980000   2.8820000  -7.0630000
  -2.7210000   3.9190000  -7.1620000  -1.4110000   2.6150000  -8.2430000
  -0.9160000   3.5460000  -8.8420000  -1.6090000   2.7020000  -5.7230000
  -1.3630000   1.6410000  -5.6850000  -2.5270000   2.9860000  -4.5020000
  -2.4550000   4.0670000  -4.3820000  -3.5710000   2.7360000  -4.6910000
  -0.2830000   3.4330000  -5.7030000   0.0880000   3.5020000  -4.6810000
   0.4780000   2.9590000  -6.3220000  -0.5130000   4.4440000  -6.0400000
  -2.0540000   2.4550000  -3.1290000  -2.3790000   3.1980000  -2.4010000
  -0.9640000   2.4670000  -3.1070000  -2.3480000   1.4410000  -2.8580000
  -1.1880000   1.2990000  -8.6300000  -1.6160000   0.5210000  -8.1470000
  -0.1790000   0.9680000  -9.5830000   0.7550000   1.5110000  -9.4400000
  -0.6020000   1.5070000 -10.9810000   0.1290000   2.1050000 -11.7760000
   0.2040000  -0.5520000  -9.7150000  -0.5010000  -1.2520000 -10.1630000
   0.3280000  -0.9770000  -8.7190000   1.5160000  -0.6090000 -10.4320000
   2.4600000   0.1820000 -10.1910000   1.7130000  -1.4540000 -11.4030000
   2.5970000  -1.5880000 -11.8730000   0.8820000  -1.8400000 -11.8300000
  -1.8760000   1.2280000 -11.2480000  -2.4100000   0.7830000 -10.5150000
  -2.4160000   1.6100000 -12.5850000  -1.6590000   1.2630000 -13.2890000
  -2.5600000   3.1120000 -12.9170000  -2.7450000   3.3720000 -14.1360000
  -3.6830000   0.7650000 -12.7610000  -3.5340000  -0.0300000 -12.0310000
  -4.6120000   1.2740000 -12.5020000  -3.7570000   0.1080000 -14.1180000
  -3.4040000   0.7980000 -14.8850000  -3.1290000  -0.7830000 -14.1310000
  -5.2310000  -0.3220000 -14.5330000  -5.6120000  -0.9770000 -13.7510000
  -5.2260000  -0.8820000 -15.4680000  -6.0950000   0.8860000 -14.7160000
  -7.0510000   0.4920000 -15.0620000  -6.3880000   1.2040000 -13.7150000
  -5.4900000   1.8850000 -15.6660000  -5.5210000   1.5120000 -16.6040000
  -6.1120000   2.6780000 -15.5900000  -4.5140000   2.1170000 -15.5540000
  -2.4950000   4.0890000 -11.9030000  -2.3450000   3.7300000 -10.9710000
  -2.2820000   5.5790000 -12.0580000  -2.6780000   5.9830000 -12.9900000
  -0.7420000   5.9920000 -12.2710000  -0.3170000   7.0870000 -12.5500000
  -2.9910000   6.3860000 -10.8440000  -3.4020000   5.6750000 -10.1270000
  -2.2770000   6.9300000 -10.2260000  -4.1710000   7.2650000 -11.2280000
  -4.9780000   6.5930000 -11.5190000  -3.8780000   7.7880000 -12.1380000
  -4.7130000   8.2430000 -10.1160000  -5.2110000   7.7160000  -9.3020000
  -3.7980000   8.7030000  -9.7440000  -5.6350000   9.2880000 -10.5780000
  -5.2460000   9.7590000 -11.4810000  -5.7490000  10.0150000  -9.7750000
  -6.9940000   8.7820000 -10.8900000  -7.3680000   8.3660000 -10.0490000
  -7.7000000   9.4850000 -11.0560000  -7.0960000   8.0650000 -11.5940000
   0.1520000   4.9710000 -12.2800000  -0.1650000   4.0120000 -12.2920000
   1.5870000   4.9610000 -12.0220000   1.9330000   3.9390000 -11.8660000
   1.8780000   5.6340000 -10.6850000   2.7610000   6.4790000 -10.6890000
   2.3280000   5.5280000 -13.2290000   2.2850000   6.6170000 -13.2690000
   3.3490000   5.2120000 -13.0170000   1.9350000   4.8840000 -14.6390000
   0.9040000   5.1710000 -14.8440000   2.0100000   3.7980000 -14.5850000
   2.7450000   5.3480000 -15.9330000   3.7150000   4.8560000 -15.9880000
   2.2200000   4.8700000 -16.7600000   2.8130000   6.8030000 -16.5160000
   2.7540000   6.7270000 -17.6020000   1.9260000   7.3290000 -16.1630000
   4.0440000   7.6030000 -16.1430000   4.9180000   7.2480000 -16.5040000
   4.2280000   7.6420000 -15.1500000   4.0090000   8.5790000 -16.4010000
   0.9710000   5.6940000  -9.6510000   0.2070000   5.0380000  -9.7320000
   1.0140000   6.4890000  -8.4620000   1.2810000   7.5160000  -8.7130000
   2.1670000   5.9600000  -7.5390000   2.0020000   5.4790000  -6.4130000
  -0.4020000   6.5660000  -7.8720000  -0.2530000   6.3670000  -6.8110000
  -1.0230000   5.7870000  -8.3140000  -1.2200000   7.8670000  -7.9180000
  -0.9210000   8.9970000  -8.7300000  -0.1370000   8.9020000  -9.4670000
  -2.3010000   7.9680000  -6.9940000  -2.6000000   7.1750000  -6.3250000
  -1.6760000  10.1750000  -8.5030000  -1.3220000  11.0040000  -9.0980000
  -3.0530000   9.1700000  -6.7990000  -3.7820000   9.2100000  -6.0030000
  -2.7350000  10.2830000  -7.5500000  -3.3270000  11.1790000  -7.4330000
   3.3950000   5.8410000  -8.0870000   3.4280000   6.4850000  -8.8640000
   4.6530000   5.1680000  -7.6390000   4.6080000   4.1010000  -7.8590000
   4.9660000   5.3330000  -6.1540000   5.2040000   4.4180000  -5.4490000
   5.8650000   5.8610000  -8.4280000   6.0470000   6.8690000  -8.0570000
   5.7020000   5.7950000  -9.5040000   7.1570000   5.0930000  -8.0510000
   6.9240000   4.0290000  -7.9950000   7.4930000   5.3160000  -7.0390000
   8.2730000   5.2650000  -9.0650000   8.0180000   4.9460000 -10.0760000
   8.5190000   6.3250000  -9.1300000   9.5270000   4.4410000  -8.5660000
   9.4520000   3.4370000  -8.9840000   9.4580000   4.3060000  -7.4860000
  10.7910000   4.9710000  -9.0830000  11.4890000   4.2910000  -8.8180000
  11.1610000   5.7840000  -8.6120000  10.9410000   5.0780000 -10.0760000
   5.0250000   6.6040000  -5.7200000   5.0440000   7.2620000  -6.4860000
   5.4950000   6.9080000  -4.3470000   6.3470000   6.2400000  -4.2170000
   4.4560000   6.4070000  -3.2820000   4.8960000   6.0830000  -2.1370000
   5.9330000   8.3560000  -4.2150000   5.1100000   9.0640000  -4.3130000
   7.0370000   8.7280000  -5.3360000   7.2410000   9.7880000  -5.1890000
   6.4800000   8.6370000  -6.2680000   6.5150000   8.6600000  -2.8430000
   7.2390000   7.8960000  -2.5560000   6.8920000   9.6750000  -2.7190000
   5.7130000   8.6150000  -2.1060000   8.3620000   8.0540000  -5.4490000
   8.1480000   7.0150000  -5.6980000   8.8830000   8.4070000  -6.3390000
   9.0420000   8.2520000  -4.6200000   3.1800000   6.3640000  -3.5900000
   2.8570000   6.8100000  -4.4370000   2.2390000   5.7580000  -2.6590000
   2.3760000   6.2520000  -1.6970000   2.3940000   4.1870000  -2.5520000
   2.3090000   3.6940000  -1.4290000   0.8920000   6.1710000  -3.1760000
   0.7690000   7.2530000  -3.1420000   0.8270000   5.8060000  -4.2010000
  -0.3150000   5.7490000  -2.2690000  -0.4500000   4.6700000  -2.3440000
  -0.1810000   6.1870000  -0.8470000  -1.1380000   6.2670000  -0.3310000
   0.2700000   7.1750000  -0.9400000   0.5620000   5.5040000  -0.4350000
  -1.5810000   6.5050000  -2.8500000  -1.8950000   6.1510000  -3.8320000
  -1.5090000   7.5920000  -2.8900000  -2.3880000   6.3490000  -2.1340000
   2.5800000   3.5020000  -3.7010000   2.5040000   3.9610000  -4.5980000
   2.9700000   2.0120000  -3.5970000   2.0620000   1.5770000  -3.1770000
   4.0710000   1.7570000  -2.5950000   3.8950000   0.7400000  -1.8980000
   3.2300000   1.4170000  -4.9850000   2.3030000   1.5890000  -5.5320000
   4.0440000   1.8800000  -5.5420000   3.4130000  -0.1530000  -4.9910000
   2.5520000  -0.7180000  -4.6330000   4.2290000  -0.3320000  -4.2910000
   3.6910000  -0.7890000  -6.4280000   3.6800000  -1.8790000  -6.4260000
   2.9950000  -0.3890000  -7.1650000   4.9920000  -0.3130000  -6.9970000
   5.7430000  -0.8970000  -6.4660000   5.0040000   0.7770000  -6.9760000
   5.1100000  -0.7180000  -8.4190000   6.0850000  -0.9060000  -8.6060000
   4.8110000  -0.0190000  -9.0840000   4.6030000  -1.5720000  -8.5970000
   5.1280000   2.5680000  -2.6710000   5.0380000   3.4580000  -3.1390000
   6.4080000   2.1270000  -2.0430000   6.5470000   1.1180000  -2.4310000
   6.1980000   2.0430000  -0.5710000   6.5800000   1.0360000   0.0780000
   7.6220000   2.9470000  -2.5110000   7.5780000   3.1090000  -3.5880000
   8.7750000   1.9370000  -2.2380000   8.5180000   0.9140000  -2.5160000
   8.9470000   1.8910000  -1.1630000   7.8610000   4.2260000  -1.7480000
   8.2160000   4.1200000  -0.7230000   8.6180000   4.8230000  -2.2560000
   6.9110000   4.7520000  -1.6590000   9.9650000   2.2380000  -2.9800000
   9.6980000   2.5130000  -4.0000000  10.4950000   1.2860000  -3.0220000
  10.5160000   2.9240000  -2.3370000   5.4920000   2.9210000   0.0550000
   5.1260000   3.6800000  -0.5010000   5.0540000   2.7340000   1.4050000
   5.9700000   2.4000000   1.8920000   4.1110000   1.6390000   1.7290000
   4.3160000   1.0560000   2.8250000   4.5100000   4.0420000   1.9590000
   4.3460000   3.9730000   3.0340000   3.5050000   4.1820000   1.5580000
   5.3620000   5.2320000   1.6930000   6.6720000   5.3590000   1.6520000
   7.3570000   4.5400000   1.8160000   4.8070000   6.5450000   1.5450000
   6.9810000   6.6390000   1.1710000   7.9150000   7.0100000   1.0800000
   5.8450000   7.4180000   1.1940000   3.4650000   7.0470000   1.5890000
   2.6890000   6.3110000   1.7400000   5.5500000   8.7740000   0.9390000
   6.3570000   9.4660000   0.7490000   3.2000000   8.3400000   1.3900000
   2.1750000   8.6680000   1.3040000   4.2200000   9.2040000   0.9860000
   3.9610000  10.2140000   0.7030000   3.1670000   1.3500000   0.8970000
   2.9700000   2.0560000   0.2010000   2.2290000   0.2900000   1.1600000
   1.8010000   0.4530000   2.1490000   2.9090000  -1.0930000   1.1740000
   2.7350000  -1.8510000   2.1410000   1.1510000   0.1790000   0.1130000
   1.0320000  -0.8210000  -0.3050000   1.4170000   0.8820000  -0.6770000
  -0.1720000   0.6360000   0.7800000  -0.0780000   0.9350000   1.8240000
  -0.8580000   1.7820000   0.1330000  -0.7560000   1.5260000  -0.9220000
  -0.3610000   2.7240000   0.3620000  -1.9230000   1.9170000   0.3200000
  -1.0920000  -0.5690000   0.7810000  -1.5470000  -0.6940000  -0.2010000
  -0.5130000  -1.4740000   0.9640000  -1.9390000  -0.4070000   1.4470000
   3.8430000  -1.3550000   0.2940000   3.8480000  -0.7380000  -0.5050000
   4.7320000  -2.5470000   0.2830000   4.1980000  -3.4730000   0.0690000
   5.4360000  -2.7260000   1.6430000   5.6530000  -3.8880000   2.0570000
   5.6190000  -2.3340000  -0.8920000   6.2710000  -3.2080000  -0.9000000
   6.1380000  -1.3810000  -0.7870000   5.0910000  -2.4270000  -2.3370000
   4.2180000  -1.8120000  -2.5540000   6.3250000  -2.0010000  -3.1240000
   6.3810000  -0.9210000  -3.2650000   7.2740000  -2.1990000  -2.6240000
   6.3290000  -2.4660000  -4.1090000   4.8260000  -3.9130000  -2.6760000
   5.7960000  -4.3980000  -2.5640000   4.1760000  -4.3580000  -1.9230000
   4.3900000  -4.1240000  -3.6520000   5.7010000  -1.5920000   2.2680000
   5.7190000  -0.7030000   1.7900000   6.2650000  -1.5780000   3.6240000
   6.8170000  -2.5070000   3.7650000   5.3550000  -1.3660000   4.7850000
   5.7170000  -1.6380000   5.9150000   7.3570000  -0.5490000   3.6380000
   7.8910000  -0.5520000   4.5880000   6.9830000   0.4730000   3.5870000
   8.3150000  -0.7410000   2.4520000   9.0230000   0.0840000   2.5310000
   7.8220000  -0.8010000   1.4820000   9.2080000  -1.9960000   2.5720000
   9.8830000  -2.2070000   3.6510000   9.1840000  -2.8980000   1.6830000
   4.0030000  -1.1260000   4.6730000   3.6840000  -0.8150000   3.7670000
   3.0650000  -1.2520000   5.8240000   3.4880000  -0.7010000   6.6650000
   2.9400000  -2.7670000   6.1550000   2.9300000  -3.0740000   7.3710000
   1.7330000  -0.5500000   5.4990000   1.3900000  -0.7010000   4.4750000
   2.0190000   1.0130000   5.5890000   2.1990000   1.2170000   6.6450000
   2.9320000   1.1440000   5.0070000   0.5820000  -1.1020000   6.3700000
   0.6990000  -1.0860000   7.4540000   0.3090000  -2.1220000   6.0980000
  -0.2710000  -0.4760000   6.1060000   0.9200000   1.8540000   5.0160000
  -0.0040000   1.8610000   5.5950000   0.6160000   1.5150000   4.0260000
   1.1670000   2.9150000   5.0390000   2.7570000  -3.6140000   5.1730000
   2.7250000  -3.3840000   4.1900000   2.7210000  -5.0230000   5.5640000
   2.0870000  -5.1130000   6.4460000   4.1290000  -5.5160000   6.0250000
   4.2450000  -6.7220000   6.3700000   2.0740000  -5.8850000   4.4990000
   1.0900000  -5.4560000   4.3100000   2.6110000  -5.7590000   3.5590000
   1.9470000  -7.2700000   4.8260000   2.6780000  -7.4710000   5.4160000
   5.1190000  -4.6880000   6.1350000   5.1460000  -3.8370000   5.5910000
   6.4040000  -4.8980000   6.9280000   6.6420000  -5.9460000   7.1110000
   6.4400000  -4.2210000   8.3790000   6.7610000  -4.9620000   9.2510000
   7.5960000  -4.3570000   6.0850000   7.3760000  -4.7280000   5.0840000
   7.4930000  -3.2720000   6.0990000   8.9330000  -4.8630000   6.6490000
   9.6820000  -5.8310000   5.9160000   9.2490000  -6.2620000   5.0250000
   9.5180000  -4.2860000   7.7790000   9.0330000  -3.4470000   8.2550000
  10.8560000  -6.3750000   6.5130000  11.4410000  -7.1790000   6.0910000
  10.7910000  -4.6740000   8.2530000  11.0660000  -4.2770000   9.2200000
  11.4360000  -5.8080000   7.6990000  12.2950000  -6.1760000   8.2390000
   5.8160000  -3.0710000   8.5380000   5.6950000  -2.4890000   7.7220000
   5.4730000  -2.5070000   9.8560000   6.4520000  -2.3980000  10.3230000
   4.6760000  -3.3880000  10.7920000   4.7780000  -3.2910000  12.0400000
   4.8500000  -1.1310000   9.5950000   4.4870000  -0.6250000  10.4900000
   4.0380000  -1.1430000   8.8680000   5.9540000  -0.0690000   9.1540000
   6.4810000  -0.3530000   8.2430000   5.4480000   1.2640000   8.8370000
   4.7320000   1.6340000   9.5710000   6.2290000   1.9920000   8.6160000
   5.0580000   1.1850000   7.8230000   7.0000000   0.0710000  10.2760000
   7.6020000  -0.8020000  10.5270000   6.6920000   0.7140000  11.1010000
   7.7400000   0.7910000   9.9260000   3.9330000  -4.3510000  10.2490000
   3.9520000  -4.2070000   9.2490000   3.1580000  -5.4410000  10.9130000
   2.5260000  -4.9680000  11.6650000   4.1650000  -6.5280000  11.5630000
   3.9270000  -7.1360000  12.5880000   2.3370000  -6.1400000   9.8600000
   2.7060000  -7.0800000   9.4500000   2.3710000  -5.4540000   9.0130000
   0.8300000  -6.3250000  10.0910000  -0.0560000  -6.5230000   9.0820000
   0.1930000  -6.5880000   8.0330000   0.0370000  -6.5680000  11.3950000
  -1.3170000  -6.5610000   9.6030000  -2.1530000  -6.7480000   9.0670000
  -1.3530000  -6.7520000  10.9940000   0.3230000  -6.5000000  12.8030000
   1.3560000  -6.3750000  13.0910000  -2.3240000  -6.8490000  11.9290000
  -3.3180000  -7.0880000  11.5820000  -0.6990000  -6.6290000  13.7380000
  -0.6200000  -6.7040000  14.8130000  -2.0490000  -6.6970000  13.3130000
  -2.7560000  -6.7660000  14.1270000   5.2530000  -6.8060000  10.8790000
   5.5390000  -6.2660000  10.0750000   6.0120000  -8.0520000  11.0390000
   5.4890000  -8.7500000  11.6920000   7.4190000  -7.9730000  11.6230000
   8.2660000  -8.8510000  11.3810000   5.9320000  -8.7340000   9.6460000
   6.4640000  -9.6770000   9.7740000   6.4190000  -8.0820000   8.9200000
   4.6470000  -8.9690000   9.1610000   4.6400000  -9.4410000   8.3250000
   7.6970000  -6.9600000  12.3940000   6.9060000  -6.5080000  12.8290000
   8.9750000  -6.8500000  13.1240000   9.5960000  -7.7450000  13.1130000
   8.7240000  -6.5720000  14.5800000   9.3100000  -7.2030000  15.5300000
   9.9180000  -5.7710000  12.5380000   9.3670000  -4.8410000  12.6790000
  10.1130000  -5.9040000  11.4740000  11.0990000  -5.5810000  13.1860000
  11.7080000  -6.2460000  12.8550000   7.9880000  -5.6670000  14.8830000
  -6.2490000  -1.8540000   6.3890000  -5.6840000  -1.3260000   5.0670000
  -4.2380000  -0.9280000   5.2300000  -4.0050000  -0.2800000   6.5660000
  -2.7150000  -0.7720000   7.2080000  -1.9160000   0.4100000   7.7040000
  -1.8110000   1.5440000   6.7270000  -1.9670000  -1.5000000   6.2520000
  -0.7500000  -1.9930000   6.6000000   0.2670000  -1.5660000   6.1250000
  -0.7810000  -3.0890000   7.5640000  -1.1010000  -4.3210000   7.1860000
  -0.9510000  -5.5050000   8.0600000  -1.7390000  -5.6730000   9.1800000
  -1.5530000  -6.7730000   9.9970000  -0.5940000  -7.7000000   9.7140000
  -0.4350000  -8.7550000  10.5420000  -1.2390000  -9.9110000  10.3750000
   0.1900000  -7.5370000   8.5910000   0.0050000  -6.4420000   7.7720000
  -5.7302184  -1.3691917   7.2291349  -7.3245222  -1.6298068   6.4436756
  -6.0980533  -2.9422213   6.4436756  -5.7585549  -2.1127747   4.3018679
  -6.2631895  -0.4422936   4.7610548  -3.6067583  -1.8253330   5.1504550
  -3.9822214  -0.2056959   4.4407889  -3.9428555   0.8096241   6.4286775
  -4.8425359  -0.5443434   7.2283113  -2.9480089  -1.4274845   8.0600839
  -2.3944117   0.7883358   8.6194149  -0.8915922   0.0465484   7.8727943
  -1.7230839   2.4934935   7.2753912  -0.9221514   1.4021065   6.0946912
  -2.7107905   1.5677212   6.0946912  -0.5358844  -2.8914369   8.6179863
  -1.4980121  -4.4687672   6.1708418  -2.5149560  -4.9321426   9.4229455
  -2.1868905  -6.9018481  10.8867083  -1.5166415 -10.3101959  11.3616903
  -2.1493773  -9.6469653   9.8168792  -0.6746895 -10.6726133   9.8168792
   0.9633891  -8.2805396   8.3480635   0.6329940  -6.3203869   6.8771068
