
  474  0.0000000e+00
   5.7080000  -9.9910000  -0.5570000   5.1530000 -10.1100000  -1.3920000
   6.0900000 -10.9240000  -0.4870000   5.1260000  -9.8150000   0.2490000
   6.7350000  -8.9170000  -0.7110000   7.1570000  -9.1240000  -1.6950000
   7.9350000  -9.0790000   0.3080000   7.7360000  -9.1150000   1.4990000
   6.1150000  -7.4990000  -0.7690000   6.9240000  -6.7700000  -0.7210000
   5.5680000  -7.3150000   0.1560000   5.2360000  -7.2440000  -1.9330000
   5.8300000  -7.1800000  -3.2540000   6.9000000  -7.2770000  -3.3650000
   3.8150000  -7.4400000  -1.7880000   3.3670000  -7.4850000  -0.8070000
   5.0180000  -7.2710000  -4.4460000   5.5380000  -7.2510000  -5.3920000
   3.0020000  -7.3920000  -2.9490000   1.9280000  -7.4820000  -2.8910000
   3.5860000  -7.3540000  -4.2800000   2.8150000  -7.7070000  -5.3400000
   1.9430000  -8.0560000  -5.1440000   9.1190000  -9.0720000  -0.2700000
   9.1610000  -8.9440000  -1.2710000  10.4110000  -9.6450000   0.3460000
  10.2170000 -10.7140000   0.4350000  10.6710000  -9.1100000   1.7490000
  11.0020000  -9.8670000   2.6270000  11.6390000  -9.3920000  -0.5780000
  12.0080000  -8.3790000  -0.4180000  11.2250000  -9.5210000  -1.9840000
  11.0120000 -10.4340000  -2.1920000  12.8580000 -10.2820000  -0.2910000
  12.5230000 -11.3110000  -0.1590000  13.5740000 -10.2070000  -1.1090000
  13.3620000  -9.9220000   0.6060000  10.5680000  -7.7660000   2.0010000
   9.8900000  -7.2110000   1.5000000  11.2850000  -7.1910000   3.2060000
  12.3300000  -7.5030000   3.2240000  10.7030000  -7.5070000   4.6130000
  11.4650000  -7.5030000   5.6330000  11.4210000  -5.6580000   3.0880000
  11.6160000  -5.1820000   4.0480000  10.3900000  -5.3290000   2.9600000
  12.3260000  -5.1970000   1.8980000  13.5360000  -5.4790000   2.0540000
  11.8320000  -4.6600000   0.8840000   9.3790000  -7.6440000   4.7350000
   8.8910000  -7.7800000   3.8610000   8.6180000  -7.9690000   5.9340000
   9.0680000  -8.8470000   6.3960000   7.6300000  -8.2900000   5.6040000
   8.3660000  -6.8680000   6.9550000   7.2960000  -6.9210000   7.5320000
   9.2740000  -5.9030000   6.9720000  10.1040000  -6.0160000   6.4070000
   9.2130000  -4.6630000   7.8270000  10.2620000  -4.4510000   8.0350000
   8.6450000  -4.8920000   8.7290000   8.6520000  -3.4370000   7.1140000
   7.4310000  -3.2440000   7.2260000   9.4160000  -2.6480000   6.3520000
  10.3650000  -2.9130000   6.1310000   8.8670000  -1.5360000   5.4990000
   8.4360000  -0.7740000   6.1480000   7.7610000  -1.9640000   4.5380000
   6.9310000  -1.1460000   4.1940000  10.1380000  -0.9590000   4.8180000
   9.7120000  -0.2760000   4.0830000  10.6270000  -1.6790000   4.1630000
  11.1450000  -0.3080000   5.7730000  10.6900000   0.4420000   6.4200000
  11.5730000  -1.1170000   6.3650000  12.3200000   0.2600000   4.9740000
  11.8170000   0.8220000   4.1870000  12.8910000  -0.5670000   4.5530000
  13.3060000   1.1460000   5.6830000  13.7350000   0.8020000   6.5300000
  13.6910000   2.3710000   5.3850000  13.4040000   2.9030000   4.2520000
  13.7960000   3.8180000   4.0820000  13.1600000   2.3440000   3.4470000
  14.4990000   3.1040000   6.0880000  14.7630000   2.7520000   6.9970000
  14.8870000   3.9440000   5.6830000   7.7100000  -3.2490000   4.0880000
   8.3970000  -3.9340000   4.3700000   6.4750000  -3.6570000   3.3380000
   6.2690000  -2.8310000   2.6570000   5.1370000  -3.7250000   4.1370000
   4.1330000  -3.3030000   3.5940000   6.6920000  -4.9670000   2.5720000
   5.7500000  -5.2130000   2.0820000   7.4930000  -4.7360000   1.8700000
   7.1540000  -5.9620000   3.4930000   6.6140000  -6.7520000   3.4140000
   5.1890000  -4.0220000   5.4350000   6.0730000  -4.3980000   5.7470000
   4.1650000  -3.6730000   6.4270000   3.3140000  -4.3050000   6.1740000
   3.9230000  -2.1030000   6.4450000   2.7880000  -1.7030000   6.3270000
   4.5720000  -4.1320000   7.8120000   5.1060000  -5.0800000   7.7670000
   5.2120000  -3.4370000   8.3560000   3.4450000  -4.2370000   8.8140000
   2.6570000  -5.3740000   8.8630000   2.7910000  -6.1640000   8.1390000
   3.2950000  -3.2140000   9.7410000   3.9830000  -2.3840000   9.6740000
   1.7570000  -5.4480000   9.9020000   1.1220000  -6.3130000  10.0270000
   2.3430000  -3.2750000  10.7540000   2.2360000  -2.4890000  11.4870000
   1.5680000  -4.4200000  10.8300000   0.7470000  -4.3860000  11.5310000
   5.0050000  -1.2950000   6.4630000   5.9010000  -1.6880000   6.7150000
   4.8170000   0.1670000   6.4100000   4.0640000   0.4100000   7.1600000
   4.2640000   0.6670000   5.0680000   3.7490000   1.7500000   4.9790000
   6.1660000   0.9340000   6.7300000   6.6560000   0.5650000   7.6310000
   6.0570000   2.0180000   6.7390000   6.9090000   0.6960000   5.9680000
   4.4230000  -0.0570000   3.9810000   4.8940000  -0.9480000   4.0560000
   3.8810000   0.3530000   2.6520000   3.9670000   1.4390000   2.6180000
   2.3750000   0.0170000   2.7040000   1.5770000   0.9080000   2.4920000
   4.5740000  -0.3960000   1.4810000   4.8350000  -1.4220000   1.7420000
   5.9560000   0.2880000   1.1690000   6.4580000   0.4930000   2.1150000
   6.4800000  -0.4010000   0.5070000   5.8370000   1.2250000   0.6250000
   3.7600000  -0.4280000   0.1900000   4.4220000  -0.3480000  -0.6730000
   3.1020000   0.4160000  -0.0150000   3.1280000  -1.3160000   0.1770000
   2.0140000  -1.2350000   2.9770000   2.7460000  -1.9190000   2.8510000
   0.6050000  -1.7250000   3.2040000   0.1260000  -1.7430000   2.2250000
  -0.1510000  -0.7650000   4.0670000  -1.3000000  -0.4410000   3.7760000
   0.6450000  -3.0840000   3.8360000   1.0660000  -2.9090000   4.8270000
   1.3940000  -3.7130000   3.3550000  -0.6690000  -3.8640000   3.9230000
  -0.5330000  -4.7740000   4.5080000  -1.2760000  -3.2560000   4.5920000
  -1.5190000  -4.1920000   2.6600000  -1.8300000  -3.1720000   2.4360000
  -0.8800000  -4.6000000   1.8760000  -2.7550000  -5.0050000   3.0600000
  -3.1840000  -4.4730000   3.9100000  -2.5380000  -6.0230000   3.3840000
  -3.6840000  -4.9910000   1.8740000  -3.9810000  -4.1010000   1.4980000
  -4.4760000  -5.5750000   2.1020000  -3.4350000  -5.5340000   1.0600000
   0.5120000  -0.2450000   5.1060000   1.4090000  -0.6380000   5.3510000
  -0.1480000   0.6670000   6.1130000  -1.0690000   0.2470000   6.5180000
  -0.6450000   2.0320000   5.4160000  -1.7670000   2.4850000   5.6840000
   0.8530000   0.9290000   7.2420000   1.8030000   1.3940000   6.9790000
   0.4200000   1.5450000   8.0300000   0.9860000   0.0320000   7.8470000
   0.1810000   2.6560000   4.5350000   1.0550000   2.1940000   4.3260000
   0.0020000   3.8900000   3.7480000  -0.3050000   4.7180000   4.3870000
  -0.9920000   3.6500000   2.5990000  -1.8510000   4.4450000   2.3780000
   1.3450000   4.2670000   3.1580000   1.1620000   5.0310000   2.4030000
   1.8250000   3.3900000   2.7220000   1.9490000   4.5420000   4.0230000
  -1.0370000   2.3880000   2.0650000  -0.2460000   1.7670000   2.1580000
  -2.1270000   2.0190000   1.1460000  -2.1650000   2.7040000   0.2990000
  -3.4760000   1.9220000   1.9080000  -4.4160000   2.6210000   1.4590000
  -1.7820000   0.7420000   0.4750000  -1.6020000  -0.0380000   1.2140000
  -0.4840000   0.7920000  -0.3490000   0.3620000   1.1760000   0.2210000
  -0.7870000   1.4730000  -1.1450000  -0.1610000  -0.2180000  -0.5980000
  -2.8660000   0.2670000  -0.4270000  -2.4880000  -0.0340000  -1.4040000
  -3.4260000  -0.4610000   0.1600000  -3.5420000   1.1090000  -0.5740000
  -3.5040000   1.1900000   2.9760000  -2.6490000   0.7910000   3.3380000
  -4.7660000   0.9170000   3.6410000  -5.3920000   0.5300000   2.8370000
  -5.4590000   2.1060000   4.1600000  -6.7140000   2.2030000   3.9980000
  -4.5680000  -0.1380000   4.6660000  -3.6010000  -0.6250000   4.5370000
  -4.6150000   0.3950000   5.6150000  -5.6060000  -1.2140000   4.7400000
  -6.4740000  -1.2920000   3.8790000  -5.5500000  -1.8520000   5.8110000
  -4.6630000   3.0740000   4.6710000  -3.6680000   2.8980000   4.6670000
  -5.2820000   4.4140000   5.0520000  -6.1700000   4.1650000   5.6320000
  -5.8690000   5.2490000   3.8940000  -6.8290000   5.9990000   4.1490000
  -4.2240000   5.2010000   5.8890000  -3.2780000   5.1400000   5.3500000
  -4.5420000   6.2290000   6.0640000  -3.8790000   4.3190000   7.2440000
  -2.8720000   4.4870000   7.6250000  -4.0400000   3.2590000   7.0470000
  -4.8110000   4.7330000   8.4580000  -5.8120000   5.4230000   8.3030000
  -4.4880000   4.4090000   9.6320000  -5.2460000   5.1170000   2.7400000
  -4.6130000   4.3340000   2.6580000  -5.7230000   5.8380000   1.5400000
  -5.9630000   6.8780000   1.7640000  -7.0120000   5.1750000   0.9570000
  -7.8310000   5.9570000   0.4690000  -4.6330000   5.7860000   0.4520000
  -3.8810000   6.5400000   0.6830000  -4.1300000   4.8200000   0.4190000
  -5.1080000   5.9710000  -0.5120000  -7.2330000   3.8770000   1.0010000
  -6.4870000   3.3000000   1.3630000  -8.4470000   3.0980000   0.5920000
  -8.7180000   3.4880000  -0.3890000  -9.5360000   3.3510000   1.5650000
 -10.6880000   3.4320000   1.0880000  -8.1860000   1.5750000   0.4200000
  -7.7560000   1.2890000   1.3800000  -7.1670000   1.3070000  -0.6420000
  -7.6640000   1.5550000  -1.5800000  -6.3320000   1.9760000  -0.4340000
  -9.4130000   0.7020000  -0.0050000  -9.1770000  -0.3530000  -0.1390000
 -10.2250000   0.7590000   0.7190000  -9.7170000   1.0840000  -0.9800000
  -6.4710000  -0.0820000  -0.4710000  -5.9810000  -0.2290000   0.4920000
  -7.1880000  -0.8960000  -0.5720000  -5.9110000  -0.2550000  -1.3900000
  -9.2750000   3.3470000   2.9030000  -8.3510000   3.2140000   3.2900000
 -10.2650000   3.5820000   3.9710000 -11.0990000   2.9960000   3.5870000
 -10.8790000   4.9690000   3.8390000 -12.0350000   5.0370000   4.0800000
  -9.6710000   3.1950000   5.3260000  -8.8550000   3.8830000   5.5470000
 -10.4400000   3.3470000   6.0840000  -9.3680000   2.1490000   5.2960000
 -10.0390000   5.9700000   3.5510000  -9.0580000   5.7590000   3.4420000
 -10.4460000   7.2660000   3.1460000 -11.1270000   7.8020000   3.8070000
 -11.0870000   7.3680000   1.6910000 -11.7580000   8.3190000   1.3720000
  -9.1170000   8.0330000   3.1550000  -8.3950000   7.7200000   2.4010000
  -9.3060000   9.0820000   2.9280000  -8.8630000   7.9630000   4.2130000
 -10.9050000   6.3590000   0.9160000 -10.4200000   5.5240000   1.2100000
 -11.3690000   6.3010000  -0.4610000 -11.2040000   5.2850000  -0.8200000
 -12.4430000   6.4000000  -0.6160000 -10.6310000   7.3020000  -1.3430000
 -11.1940000   7.7810000  -2.3840000  -9.4840000   7.8030000  -0.8460000
  -9.0390000   7.2760000  -0.1080000  -8.6650000   8.7970000  -1.5630000
  -9.3070000   9.5470000  -2.0240000  -7.9030000   8.2180000  -2.7000000
  -7.8850000   8.8120000  -3.7730000  -7.6930000   9.4750000  -0.6280000
  -6.8350000   8.8230000  -0.4650000  -8.1790000   9.7290000   0.3150000
  -6.9940000  10.7080000  -1.3080000  -6.7310000  10.5000000  -2.3460000
  -7.8800000  11.9360000  -1.4320000  -8.2320000  12.2630000  -0.4540000
  -7.3430000  12.7310000  -1.9500000  -8.7410000  11.5260000  -1.9600000
  -5.7630000  11.0520000  -0.4880000  -5.0470000  10.2530000  -0.6840000
  -6.0840000  11.1070000   0.5520000  -5.4690000  12.0310000  -0.8660000
  -7.4250000   6.9980000  -2.5260000  -7.7010000   6.4910000  -1.6980000
  -6.7880000   6.1390000  -3.5600000  -6.9550000   6.5940000  -4.5370000
  -7.4550000   4.8190000  -3.5460000  -7.6730000   4.2300000  -2.4390000
  -5.3060000   5.9150000  -3.4000000  -5.1040000   5.1590000  -2.6420000
  -4.6030000   7.2120000  -3.0380000  -4.7810000   7.4250000  -1.9840000
  -3.5420000   6.9700000  -3.1040000  -4.8890000   8.0630000  -3.6560000
  -4.6120000   5.3090000  -4.6550000  -3.5350000   5.3170000  -4.4880000
  -4.7910000   5.9250000  -5.5360000  -4.9150000   4.2720000  -4.8000000
  -8.0170000   4.3160000  -4.6450000  -8.0190000   4.8500000  -5.5010000
  -8.6840000   2.9580000  -4.7790000  -8.5300000   2.3700000  -3.8740000
  -8.0860000   2.1290000  -5.9660000  -7.8830000   0.9080000  -5.7350000
 -10.2200000   3.0320000  -4.9300000 -10.5630000   2.0020000  -4.8290000
 -10.4720000   3.4690000  -6.2080000 -10.7220000   2.6400000  -6.6210000
 -10.8590000   3.8580000  -3.8360000 -11.8530000   4.0590000  -4.2360000
 -10.2910000   4.7840000  -3.7490000 -10.8290000   3.3190000  -2.8890000
  -7.7060000   2.8070000  -7.0680000  -8.0520000   3.7560000  -7.0720000
  -6.9520000   2.1680000  -8.1500000  -7.2910000   1.1520000  -8.3540000
  -5.4250000   1.9260000  -7.7490000  -4.5950000   2.8290000  -7.6000000
  -7.1210000   2.8830000  -9.4060000  -6.5940000   3.8350000  -9.3490000
  -6.6220000   2.2360000 -10.1270000  -8.4630000   3.0170000  -9.8300000
  -8.8250000   3.8250000  -9.4590000  -4.9920000   0.7020000  -7.7610000
  -5.6740000  -0.0170000  -7.9580000  -3.6110000   0.2650000  -7.3590000
  -3.3320000   1.0030000  -6.6070000  -2.6180000   0.4340000  -8.4950000
  -1.4150000   0.3260000  -8.1920000  -3.5970000  -1.1900000  -6.8270000
  -3.7140000  -1.8400000  -7.6940000  -2.6320000  -1.4580000  -6.3960000
  -4.5580000  -1.5790000  -5.7020000  -5.5800000  -1.6710000  -6.0690000
  -4.7430000  -0.5330000  -4.6480000  -5.0170000   0.4000000  -5.1410000
  -5.4670000  -0.9090000  -3.9260000  -3.8690000  -0.2020000  -4.0880000
  -4.2750000  -2.9710000  -5.0940000  -3.2910000  -2.9510000  -4.6260000
  -4.9290000  -3.2180000  -4.2570000  -4.4130000  -3.7570000  -5.8370000
  -2.9560000   0.6710000  -9.7290000  -3.8690000   0.5270000 -10.1350000
  -1.9440000   1.3050000 -10.6240000  -1.2630000   0.4900000 -10.8700000
  -1.3570000   2.6120000 -10.0190000  -0.2190000   3.0430000 -10.2960000
  -2.7430000   1.6970000 -11.9070000  -1.9670000   1.9110000 -12.6420000
  -3.4230000   2.5360000 -11.7610000  -3.4930000   0.5280000 -12.5010000
  -3.0180000  -0.0910000 -13.5230000  -4.6850000   0.3610000 -12.0250000
  -2.0190000   3.1930000  -9.0220000  -2.9630000   2.9200000  -8.7880000
  -1.4600000   4.3190000  -8.2490000  -0.9610000   4.9810000  -8.9560000
  -0.4110000   3.9600000  -7.2200000   0.0530000   4.7800000  -6.4180000
  -2.5600000   5.1380000  -7.6450000  -2.5800000   4.8710000  -6.5890000
  -3.5320000   4.9850000  -8.1140000  -2.2680000   6.6700000  -7.7200000
  -1.1320000   7.2160000  -7.9110000  -3.2800000   7.4060000  -7.6830000
  -0.0980000   2.6540000  -7.2050000  -0.6260000   2.0110000  -7.7770000
   0.8960000   2.1230000  -6.2580000   1.5170000   2.9130000  -5.8350000
   1.9780000   1.2880000  -6.9250000   1.6770000   0.1750000  -7.3880000
   0.1590000   1.4490000  -5.0380000   0.8630000   0.8690000  -4.4410000
  -0.5400000   0.7760000  -5.5360000  -0.6220000   2.2730000  -4.0530000
   0.0320000   3.0280000  -3.1420000   1.1120000   3.0350000  -3.1630000
  -1.9870000   2.3240000  -4.0080000  -2.5200000   1.7590000  -4.7590000
  -0.5420000   3.7550000  -2.0690000   0.0800000   4.2700000  -1.3530000
  -2.6120000   2.9250000  -2.9090000  -3.6730000   2.9810000  -2.7160000
  -1.9090000   3.7490000  -2.0230000  -2.4500000   4.2890000  -1.2600000
   3.2160000   1.8330000  -6.9370000   3.2790000   2.6480000  -6.3440000
   4.4560000   1.1410000  -7.2550000   4.2550000   0.3350000  -7.9610000
   4.9970000   0.4940000  -5.9840000   5.2150000   1.0960000  -4.9730000
   5.3980000   2.0870000  -8.0840000   6.2190000   1.4750000  -8.4560000
   5.9290000   2.7010000  -7.3570000   4.7990000   3.0750000  -9.1620000
   3.7270000   2.8060000  -9.8050000   5.4200000   4.0480000  -9.5050000
   5.4320000  -0.7900000  -6.0800000   5.2840000  -1.3420000  -6.9130000
   6.0410000  -1.5490000  -5.0110000   5.7850000  -1.0990000  -4.0520000
   7.5610000  -1.4770000  -5.0040000   8.2600000  -1.7060000  -6.0110000
   5.5550000  -2.9960000  -5.0140000   6.0320000  -3.5110000  -4.1800000
   5.9210000  -3.5630000  -5.8710000   4.0140000  -3.1600000  -4.9990000
   3.3270000  -3.9880000  -5.7740000   3.7720000  -4.7410000  -6.4070000
   3.0360000  -2.2760000  -4.3160000   1.9240000  -3.7460000  -5.6530000
   1.2210000  -4.0320000  -6.3190000   1.7680000  -2.8480000  -4.6480000
   3.0090000  -1.2310000  -3.3430000   3.9460000  -0.7680000  -3.0700000
   0.5400000  -2.4250000  -4.1510000  -0.4320000  -2.7720000  -4.4690000
   1.7730000  -0.8350000  -2.6950000   1.7240000  -0.1030000  -1.9020000
   0.6120000  -1.5140000  -3.0230000  -0.3270000  -1.1690000  -2.6150000
   8.1140000  -1.1240000  -3.9220000   4.8280000  -2.8120000  -0.9800000
   4.1360000  -3.4200000   0.0730000   2.8400000  -3.7910000  -0.1610000
   1.9660000  -3.0030000  -0.8570000   0.6480000  -3.4180000  -1.0540000
   0.2060000  -4.6100000  -0.5510000  -1.2020000  -5.0900000  -0.7420000
  -1.5620000  -6.1820000  -0.2900000  -2.2310000  -4.2790000  -1.4460000
  -2.9910000  -3.3370000  -0.7550000  -3.9490000  -2.5760000  -1.4110000
  -4.1850000  -2.7660000  -2.7850000  -3.4470000  -3.7400000  -3.4850000
  -2.4950000  -4.5060000  -2.8170000   1.1130000  -5.4480000   0.1860000
   0.6850000  -6.6210000   0.6730000   2.4220000  -5.0090000   0.3680000
   5.5957481  -2.1374468  -0.5731328   5.3089799  -3.5849706  -1.5973935
   4.1233560  -2.2355434  -1.5973935   2.3029191  -2.0379496  -1.2634027
  -0.0438536  -2.7779194  -1.6211292  -2.8297134  -3.1947185   0.3237690
  -4.5254181  -1.8220663  -0.8548291  -4.9391026  -2.1592725  -3.3076959
  -3.6225887  -3.8957475  -4.5596680  -1.9459807  -5.2909266  -3.3578031
   1.3050849  -7.2018829   1.1811041   3.1316545  -5.6298524   0.9345092
