
  442  0.0000000e+00
  19.2510000  -6.7610000  11.9750000  19.6500000  -6.9220000  11.0610000
  20.0970000  -6.7790000  12.5270000  18.7760000  -5.8740000  11.8830000
  18.2700000  -7.8020000  12.3470000  17.7180000  -7.4020000  13.1960000
  18.8590000  -8.6120000  12.7780000  17.4490000  -8.1150000  11.1130000
  16.8390000  -7.2480000  10.5300000  17.5630000  -9.3210000  10.6360000
  18.1100000 -10.0010000  11.1440000  16.9350000  -9.7720000   9.3980000
  17.1770000  -9.1010000   8.5730000  15.3530000  -9.6880000   9.5090000
  14.6970000  -9.4410000   8.5020000  17.4280000 -11.1640000   9.1340000
  17.2160000 -11.8000000   9.9940000  18.5130000 -11.1350000   9.0330000
  17.0060000 -11.6430000   8.2500000  14.7690000  -9.9130000  10.7100000
  15.4140000 -10.0870000  11.4680000  13.4030000  -9.6780000  10.9310000
  13.0030000 -10.3110000  10.1390000  13.0080000  -8.2280000  10.7960000
  12.0070000  -7.9140000  10.1320000  12.8860000 -10.3330000  12.2330000
  11.8230000 -10.1140000  12.3330000  13.4020000  -9.9140000  13.0970000
  12.9670000 -11.4200000  12.2320000  13.7150000  -7.2850000  11.4850000
  14.5580000  -7.6200000  11.9300000  13.5330000  -5.8320000  11.4390000
  12.6160000  -5.5440000  11.9530000  13.3850000  -5.3290000   9.9640000
  12.4150000  -4.5470000   9.6330000  14.6610000  -5.1860000  12.2250000
  14.6430000  -5.4700000  13.2770000  15.6140000  -5.5980000  11.8940000
  14.6530000  -3.6960000  12.0980000  15.5440000  -3.2990000  12.5830000
  14.5870000  -3.4010000  11.0510000  13.3440000  -3.1180000  12.7440000
  12.6090000  -3.7850000  13.5410000  12.9620000  -1.9880000  12.3940000
  14.3810000  -5.8340000   9.1710000  15.1020000  -6.3930000   9.6040000
  14.5200000  -5.5380000   7.7590000  14.5350000  -4.5160000   7.3800000
  13.2830000  -6.1170000   6.9860000  12.8410000  -5.4730000   5.9910000
  15.8760000  -6.0810000   7.1780000  15.9650000  -6.1720000   6.0950000
  16.6830000  -5.3980000   7.4420000  15.9350000  -7.0660000   7.6410000
  12.7170000  -7.2870000   7.4020000  13.2810000  -7.8930000   7.9800000
  11.5290000  -7.7890000   6.6330000  11.5700000  -7.5280000   5.5760000
  10.1740000  -7.2380000   7.0850000   9.3290000  -6.9110000   6.2420000
  11.6530000  -9.2900000   6.7310000  10.8360000  -9.9030000   6.3500000
  12.5080000  -9.4640000   6.0770000  11.9510000  -9.6090000   7.7300000
  10.0710000  -6.7650000   8.3630000  10.7370000  -7.0860000   9.0520000
   9.0350000  -5.9080000   8.8640000   8.0440000  -6.3010000   8.6320000
   9.1430000  -4.5140000   8.1970000   8.0730000  -3.8850000   8.1450000
   8.9840000  -5.8180000  10.3780000   8.1040000  -5.2110000  10.5910000
   9.8960000  -5.3700000  10.7740000   8.7780000  -7.1270000  11.0640000
   9.6460000  -7.7650000  10.8960000   7.8470000  -7.5860000  10.7330000
   8.6080000  -6.8630000  12.5770000   7.6680000  -6.3430000  12.7580000
   9.3510000  -6.0970000  12.8020000   8.6220000  -8.1550000  13.3320000
   9.3670000  -8.7900000  13.0840000   7.9780000  -8.4640000  14.4330000
   6.8560000  -7.8990000  14.7600000   6.3820000  -8.0670000  15.6360000
   6.3770000  -7.3700000  14.0450000   8.4940000  -9.3290000  15.3370000
   8.1120000  -9.3200000  16.2720000   9.4400000  -9.5970000  15.1080000
  10.3160000  -4.0290000   7.7840000  11.1500000  -4.5450000   8.0290000
  10.4210000  -2.8140000   6.9760000   9.8440000  -2.0710000   7.5270000
   9.9120000  -3.0950000   5.5740000   9.4420000  -2.1480000   4.9640000
  11.9610000  -2.4100000   6.9740000  12.2370000  -1.5950000   6.3050000
  12.3440000  -2.0510000   7.9300000  12.5650000  -3.2760000   6.7020000
  10.2390000  -4.3430000   5.0540000  10.7450000  -4.9530000   5.6790000
   9.8420000  -4.7530000   3.6290000  10.1410000  -3.9610000   2.9410000
   8.2530000  -4.7620000   3.5410000   7.5880000  -4.0580000   2.7260000
  10.4550000  -6.0640000   3.1500000  10.1500000  -6.9610000   3.6870000
  11.5340000  -5.9450000   3.0540000  10.0880000  -6.2790000   2.1470000
   7.6130000  -5.4060000   4.5420000   8.1050000  -6.0160000   5.1790000
   6.1450000  -5.3350000   4.6900000   5.6920000  -5.7640000   3.7960000
   5.5700000  -3.9430000   4.9660000   4.6050000  -3.5530000   4.3220000
   5.7080000  -6.4260000   5.6640000   6.1480000  -7.3170000   5.2170000
   4.6180000  -6.3900000   5.6490000   5.9880000  -6.3200000   6.7120000
   6.2660000  -3.0920000   5.7670000   7.1630000  -3.2510000   6.2030000
   5.8020000  -1.7150000   5.9730000   4.8690000  -1.7800000   6.5340000
   5.7810000  -0.7900000   4.7470000   4.7780000  -0.0650000   4.4920000
   6.7630000  -1.1470000   7.0300000   7.7210000  -1.0890000   6.5130000
   6.9240000  -1.7640000   7.9140000   6.4560000  -0.1130000   7.1880000
   6.7760000  -0.8730000   3.8660000   7.6210000  -1.3390000   4.1640000
   6.6800000  -0.1710000   2.5370000   6.3370000   0.8520000   2.6870000
   5.6240000  -0.8620000   1.6120000   4.8720000  -0.0890000   1.0240000
   8.0410000  -0.0660000   1.9060000   8.1220000   0.3980000   0.9230000
   8.3690000  -1.0700000   1.6340000   8.6730000   0.4590000   2.6220000
   5.4810000  -2.2280000   1.4990000   6.1050000  -2.8860000   1.9440000
   4.5150000  -2.7050000   0.5970000   4.6670000  -2.2330000  -0.3740000
   3.0530000  -2.3640000   0.9780000   2.2610000  -1.9940000   0.0970000
   4.8190000  -4.1970000   0.3320000   4.9670000  -4.5980000   1.3350000
   6.1920000  -4.4760000  -0.3340000   6.8140000  -3.6890000   0.0920000
   6.2320000  -4.2000000  -1.3870000   3.7170000  -4.9950000  -0.4320000
   2.7860000  -4.8740000   0.1220000   3.9610000  -6.0470000  -0.5810000
   3.5710000  -4.4940000  -1.3890000   6.6470000  -5.9460000  -0.0760000
   5.8750000  -6.6690000  -0.3410000   7.5000000  -6.2990000  -0.6550000
   6.8970000  -6.1210000   0.9700000   2.8030000  -2.2250000   2.2440000
   3.5480000  -2.4870000   2.8740000   1.5270000  -1.6830000   2.8020000
   0.6740000  -2.2550000   2.4380000   1.3870000  -0.2310000   2.3950000
   0.2920000   0.0300000   1.8370000   1.4730000  -1.7120000   4.2890000
   2.4690000  -1.4220000   4.6230000   0.8920000  -0.9030000   4.7330000
   1.1170000  -3.0890000   4.9870000   0.0860000  -3.2760000   4.6870000
   1.8790000  -3.8070000   4.6830000   1.2500000  -2.8170000   6.5040000
   1.4830000  -3.7830000   6.9520000   2.0290000  -2.0780000   6.6900000
  -0.0550000  -2.4240000   7.1200000  -0.8480000  -2.6720000   6.5450000
  -0.2480000  -2.0310000   8.3630000   0.6980000  -1.9460000   9.2340000
   1.6440000  -2.1400000   8.9390000   0.6100000  -1.5000000  10.1350000
  -1.3900000  -1.6130000   8.8010000  -2.1370000  -1.3290000   8.1830000
  -1.5280000  -1.6270000   9.8010000   2.4180000   0.5540000   2.5330000
   3.3040000   0.2040000   2.8690000   2.3550000   1.9030000   2.0650000
   1.6250000   2.4210000   2.6880000   1.9310000   2.0450000   0.6310000
   0.9840000   2.7510000   0.3450000   3.7330000   2.5290000   2.4000000
   3.5870000   3.5840000   2.1670000   3.8890000   2.2230000   3.4340000
   4.5470000   2.1130000   1.8060000   2.7370000   1.4480000  -0.2300000
   3.5760000   0.9880000   0.0960000   2.4350000   1.5120000  -1.6330000
   2.4320000   2.5470000  -1.9750000   1.1160000   0.8580000  -2.0920000
   0.3370000   1.4910000  -2.8250000   3.6070000   0.7610000  -2.4280000
   3.4970000  -0.2620000  -2.0690000   3.4610000   0.9060000  -3.9610000
   4.1540000   0.2510000  -4.4900000   3.6800000   1.8910000  -4.3710000
   2.4260000   0.8190000  -4.2920000   4.9320000   1.3860000  -2.0320000
   5.0550000   2.4460000  -2.2540000   5.7360000   0.9650000  -2.6360000
   5.1360000   1.1290000  -0.9930000   0.8100000  -0.3190000  -1.5680000
   1.3930000  -0.6820000  -0.8270000  -0.4600000  -1.0220000  -1.9670000
  -0.5340000  -0.8940000  -3.0470000  -1.7180000  -0.3450000  -1.4190000
  -2.8570000  -0.6900000  -1.7720000  -0.3540000  -2.4850000  -1.6630000
  -1.2960000  -3.0180000  -1.7880000  -0.0260000  -2.5530000  -0.6260000
   0.6300000  -3.2350000  -2.4700000   1.6370000  -3.0980000  -2.0770000
   0.4870000  -2.9860000  -3.5220000   0.4250000  -4.7270000  -2.3630000
  -0.5960000  -4.9610000  -2.6640000   0.5300000  -4.9420000  -1.3000000
   1.3950000  -5.3680000  -3.2440000   1.6790000  -4.8060000  -4.0330000
   2.0870000  -6.4710000  -3.0610000   2.0420000  -7.2710000  -2.0200000
   1.4680000  -7.0760000  -1.2120000   2.6120000  -8.1040000  -2.0300000
   2.9380000  -6.8490000  -3.9650000   3.1000000  -6.3020000  -4.7980000
   3.6590000  -7.5300000  -3.7760000  -1.5760000   0.5770000  -0.4860000
  -0.6250000   0.8090000  -0.2380000  -2.6480000   1.4610000  -0.0530000
  -3.5340000   0.8300000  -0.1230000  -2.7860000   2.5770000  -1.0980000
  -3.8840000   2.9970000  -1.3200000  -2.3470000   1.9620000   1.3760000
  -3.1070000   2.6770000   1.6900000  -2.2150000   1.1450000   2.0860000
  -1.3580000   2.4150000   1.4520000  -1.6350000   3.1120000  -1.5890000
  -0.7320000   2.7280000  -1.3500000  -1.6110000   4.1270000  -2.6460000
  -2.1950000   4.9710000  -2.2770000  -2.3430000   3.7080000  -3.9540000
  -3.0870000   4.4290000  -4.5950000  -0.1900000   4.6280000  -2.8020000
   0.4560000   3.8560000  -3.2200000   0.2520000   4.8330000  -1.8270000
  -0.0670000   5.5820000  -3.3150000  -1.9420000   2.4790000  -4.3320000
  -1.2840000   1.9360000  -3.7910000  -2.4820000   1.9140000  -5.5410000
  -2.3120000   2.4950000  -6.4460000  -3.9990000   1.6650000  -5.4450000
  -4.7910000   2.1130000  -6.3040000  -1.7990000   0.5650000  -5.7400000
  -2.2890000   0.1070000  -6.6000000  -1.9730000  -0.0670000  -4.8700000
  -0.2330000   0.7550000  -6.0970000   0.1630000   1.4360000  -5.3430000
   0.4000000  -0.6810000  -6.0920000  -0.1150000  -1.2920000  -6.8330000
   1.4810000  -0.6760000  -6.2310000   0.2170000  -1.1300000  -5.1160000
   0.1150000   1.3790000  -7.4780000   1.1920000   1.2540000  -7.5890000
  -0.3420000   0.8020000  -8.2820000  -0.1410000   2.4380000  -7.5130000
  -4.3620000   1.0890000  -4.2760000  -3.6670000   0.7580000  -3.6220000
  -5.7900000   0.9020000  -3.9080000  -6.2500000   0.2910000  -4.6840000
  -6.6140000   2.2320000  -3.8620000  -7.7520000   2.2660000  -4.3940000
  -6.0030000   0.1980000  -2.4810000  -6.9190000   0.6270000  -2.0730000
  -5.1200000   0.3500000  -1.8610000  -6.2620000  -1.3070000  -2.6790000
  -5.3610000  -1.7790000  -3.0690000  -6.9770000  -1.5300000  -3.4700000
  -6.7250000  -1.9460000  -1.3670000  -6.9610000  -2.9840000  -1.5980000
  -7.5340000  -1.3410000  -0.9550000  -5.6090000  -1.9280000  -0.3900000
  -4.7050000  -1.7240000  -0.7920000  -5.7170000  -1.9930000   0.9110000
  -6.8030000  -2.3020000   1.5440000  -7.6090000  -2.6580000   1.0510000
  -6.8540000  -2.3000000   2.5530000  -4.6650000  -1.9640000   1.6890000
  -4.8820000  -1.7640000   2.6550000  -3.7200000  -1.8690000   1.3470000
  -6.0340000   3.3170000  -3.4050000  -5.1450000   3.3730000  -2.9300000
  -6.6900000   4.5960000  -3.2930000  -7.7420000   4.4190000  -3.0720000
  -6.6800000   5.3960000  -4.6240000  -7.6090000   6.1500000  -4.9490000
  -6.1050000   5.3850000  -2.0940000  -6.6750000   6.2540000  -1.7670000
  -6.0260000   4.8820000  -1.1310000  -5.1090000   5.6760000  -2.4300000
  -5.6960000   5.2190000  -5.4990000  -4.9620000   4.6110000  -5.1640000
  -5.5880000   5.9110000  -6.7760000  -5.9870000   6.8820000  -6.4830000
  -6.6330000   5.3310000  -7.7730000  -7.2030000   6.1040000  -8.5940000
  -4.1510000   5.9340000  -7.2940000  -3.4620000   5.9270000  -6.4490000
  -3.9760000   6.7730000  -7.9670000  -3.8540000   5.0600000  -7.8730000
  -6.9050000   4.0090000  -7.7320000  -6.3320000   3.5290000  -7.0520000
  -8.0510000   3.3630000  -8.3990000  -8.0210000   3.5700000  -9.4690000
  -9.3460000   3.9710000  -7.8900000 -10.3190000   4.1560000  -8.6500000
  -7.9840000   1.8330000  -8.1690000  -7.2600000   1.4770000  -8.9020000
  -7.6440000   1.6320000  -7.1530000  -9.0230000   1.5390000  -8.3210000
  -9.4910000   4.2570000  -6.5580000  -8.6950000   4.0940000  -5.9580000
 -10.7480000   4.6840000  -5.9640000 -11.5180000   4.1230000  -6.4940000
 -10.9820000   6.1430000  -6.3640000 -12.0540000   6.5100000  -6.7530000
 -10.6840000   4.4950000  -4.4830000  -9.9150000   5.2020000  -4.1710000
 -11.6320000   4.6950000  -3.9840000 -10.4190000   3.4670000  -4.2390000
  -9.9770000   6.9310000  -6.4190000  -9.0860000   6.5770000  -6.1010000
 -10.0810000   8.2990000  -6.9770000 -10.7840000   8.8490000  -6.3510000
 -10.6320000   8.3170000  -8.4370000 -11.5370000   9.0940000  -8.7190000
  -8.6670000   8.9680000  -6.7870000  -7.9310000   8.4870000  -7.4310000
  -8.3130000   8.7610000  -5.7780000  -8.6120000  10.4810000  -7.1330000
  -8.9150000  10.6500000  -8.1660000  -9.6390000  11.2780000  -6.3020000
 -10.6170000  11.4090000  -6.7650000  -9.3000000  12.2760000  -6.0240000
  -9.7820000  10.7050000  -5.3860000  -7.1670000  10.9710000  -7.0410000
  -7.2250000  12.0590000  -7.0020000  -6.6750000  10.6200000  -7.9480000
  -6.7480000  10.6160000  -6.1000000 -10.1970000   7.3330000  -9.3050000
  -9.5220000   6.6730000  -8.9450000 -10.6930000   7.2530000 -10.6610000
 -10.5290000   8.2420000 -11.0880000 -12.1970000   6.8770000 -10.5960000
 -12.9710000   7.4920000 -11.3420000  -9.8190000   6.2320000 -11.2870000
  -8.7790000   6.5450000 -11.2040000 -10.1070000   6.1960000 -12.3370000
  -9.9810000   5.2600000 -10.8220000 -12.6410000   6.0610000  -9.6670000
 -12.1160000   5.5460000  -8.9750000 -14.0720000   5.8430000  -9.4680000
 -14.6530000   5.4330000 -10.2940000 -14.8090000   7.0900000  -9.0770000
 -15.9290000   7.3210000  -9.4710000 -14.2970000   4.7400000  -8.4620000
 -13.5180000   3.9830000  -8.5570000 -15.3330000   4.4080000  -8.5240000
 -14.2610000   5.1370000  -7.4480000 -14.2660000   8.0660000  -8.3040000
 -13.3710000   7.8780000  -7.8750000 -14.8160000   9.3620000  -8.0990000
 -15.8580000   9.2610000  -7.7940000 -14.6590000  10.3670000  -9.2220000
 -15.3610000  11.3820000  -9.0830000 -14.2830000   9.9770000  -6.8380000
 -14.4860000   9.3170000  -5.9940000 -13.2030000  10.1070000  -6.9160000
 -14.6840000  10.9820000  -6.7140000 -13.8320000  10.1650000 -10.2340000
 -13.1230000   9.4530000 -10.1310000 -13.8140000  11.0250000 -11.4390000
 -14.2520000  12.0040000 -11.2450000 -14.5030000  10.4780000 -12.6710000
 -14.4720000  11.0680000 -13.7900000 -12.3120000  11.1470000 -11.8460000
 -11.8380000  10.1820000 -12.0270000 -12.2700000  11.6810000 -12.7950000
 -11.3950000  11.8450000 -10.7670000 -11.4330000  11.3260000  -9.8090000
  -9.8740000  11.8160000 -11.2710000  -9.8660000  12.3380000 -12.2280000
  -9.5520000  10.7980000 -11.4890000  -9.1990000  12.2550000 -10.5360000
 -11.8680000  13.2510000 -10.6810000 -12.9090000  13.2790000 -10.3600000
 -11.8130000  13.6520000 -11.6930000 -11.1840000  13.7770000 -10.0160000
 -15.2210000   9.3350000 -12.4690000 -15.0900000   8.8600000 -11.5870000
 -16.0080000   8.5820000 -13.5080000 -15.4390000   8.6380000 -14.4360000
 -17.3760000   9.0750000 -13.6480000 -18.0570000   9.3750000 -12.6500000
 -16.0450000   7.0630000 -13.1880000 -15.0250000   6.7120000 -13.3430000
 -16.7630000   6.5620000 -13.8370000 -16.3280000   6.8920000 -12.1490000
 -17.8410000   9.0630000 -14.7770000  -5.5190000   4.8410000   1.7680000
  -5.5820000   3.4380000   1.8150000  -6.6780000   2.8640000   1.3030000
  -7.4900000   3.6120000   0.4460000  -8.5960000   3.0400000  -0.1310000
  -8.8810000   1.7350000   0.1610000 -10.0770000   1.1190000  -0.5060000
 -11.0910000   1.0310000   0.1290000 -10.0730000   0.7510000  -1.8920000
  -9.4180000  -0.4120000  -2.2260000  -9.3380000  -0.7630000  -3.5550000
  -9.9270000   0.0460000  -4.4960000 -10.5350000   1.1620000  -4.1740000
 -10.6250000   1.5130000  -2.8440000  -8.1100000   1.0000000   1.0460000
  -8.4900000  -0.2540000   1.3360000  -7.0180000   1.5800000   1.6150000
  -5.5010052   5.2417415   2.7922473  -4.6060981   5.1494787   1.2374804
  -6.4005799   5.2300577   1.2374804  -7.2418473   4.6623326   0.2333460
  -9.2379999   3.6176959  -0.8122514  -8.9682969  -1.0471912  -1.4486331
  -8.8096810  -1.6786721  -3.8590125  -9.8872438  -0.2522007  -5.5540623
 -10.9664646   1.8080146  -4.9527833 -11.1581511   2.4325828  -2.5609498
  -7.9557550  -0.8000055   1.9657304  -6.4063227   1.0105080   2.3302131
