
  371  0.0000000e+00
  -2.9100000  -1.6700000  -6.9400000  -3.7800000  -1.1800000  -7.0500000
  -2.8600000  -2.4400000  -7.6000000  -3.0600000  -2.0700000  -6.0200000
  -1.7100000  -0.7800000  -6.8600000  -0.8700000  -1.4800000  -6.8500000
  -1.6800000   0.0800000  -5.4800000  -2.6400000  -0.1200000  -4.7500000
  -1.7500000   0.1300000  -8.1200000  -2.7400000   0.5700000  -8.1000000
  -1.5300000  -0.4900000  -8.9900000  -0.9100000   1.3900000  -8.2500000
   0.4800000   1.1700000  -8.4400000   0.9300000   0.2100000  -8.6700000
  -1.4400000   2.7000000  -8.1600000  -2.4700000   2.9100000  -7.9000000
   1.3100000   2.2300000  -8.5600000   2.3600000   2.1600000  -8.8300000
  -0.5500000   3.7900000  -8.2600000  -1.0400000   4.7000000  -7.9700000
   0.8400000   3.5400000  -8.3400000   1.7700000   4.5400000  -8.3500000
   2.4700000   4.3600000  -7.7200000  -0.7500000   0.9200000  -5.2600000
  -0.1500000   1.1700000  -6.0400000  -0.8300000   1.8400000  -4.1300000
  -0.3900000   1.4100000  -3.2300000  -1.8400000   2.0500000  -3.7900000
  -0.1600000   3.2300000  -4.3200000   1.0200000   3.3300000  -4.7300000
  -0.8800000   4.2500000  -3.9000000  -1.8400000   4.1100000  -3.6100000
  -0.3200000   5.6600000  -3.7200000   0.1700000   5.9800000  -4.6400000
   0.6400000   5.6000000  -2.5400000   0.4600000   4.9300000  -1.5400000
  -1.4100000   6.5900000  -3.3300000  -1.1200000   7.6100000  -3.0800000
  -1.8700000   6.1500000  -2.4500000  -2.5500000   6.6900000  -4.3300000
  -2.7500000   7.7600000  -4.8500000  -3.2100000   5.6900000  -4.5700000
   1.6900000   6.4800000  -2.5500000   1.7500000   7.1600000  -3.3000000
   2.7900000   6.4400000  -1.5100000   2.5400000   5.7400000  -0.7200000
   2.8200000   7.4100000  -1.0000000   4.2000000   6.1700000  -2.0000000
   4.8300000   5.0900000  -1.7300000   4.8200000   7.2400000  -2.6200000
   4.2900000   8.0900000  -2.7700000   6.1100000   7.1800000  -3.3400000
   6.9400000   6.9100000  -2.6800000   6.2700000   8.1400000  -3.8200000
   6.1600000   6.0900000  -4.5100000   5.1600000   5.9700000  -5.2700000
   7.1900000   5.2400000  -4.5100000   7.9000000   5.3700000  -3.8000000
   7.3400000   4.1500000  -5.5500000   6.4500000   4.1800000  -6.1800000
   7.3500000   2.7900000  -4.9400000   8.2300000   2.4900000  -4.2000000
   8.6200000   4.4300000  -6.4000000   9.3200000   4.9200000  -5.7200000
   9.0600000   3.4900000  -6.7200000   8.3000000   5.3900000  -7.4900000
   8.1300000   6.4000000  -7.1200000   7.4200000   5.0700000  -8.0400000
   9.4200000   5.5200000  -8.5700000   9.5100000   4.6300000  -9.1900000
   9.1600000   6.3700000  -9.2000000  10.7900000   5.7600000  -8.1000000
  10.9500000   6.2100000  -7.2100000  11.9300000   5.8200000  -8.8300000
  12.0500000   5.6100000 -10.0900000  12.8800000   5.3200000 -10.5800000
  11.1400000   5.3900000 -10.4600000  12.9900000   6.2300000  -8.2300000
  12.9900000   6.4600000  -7.2400000  13.8400000   6.3800000  -8.7500000
   6.3800000   1.9500000  -5.2500000   5.6900000   2.2900000  -5.9000000
   6.1400000   0.6500000  -4.5700000   6.5500000   0.5900000  -3.5600000
   6.5300000  -0.1500000  -5.1900000   4.6800000   0.5600000  -4.4800000
   3.8200000   1.4500000  -4.8600000   4.2200000  -0.6100000  -4.1800000
   4.8700000  -1.3800000  -4.2100000   2.8600000  -0.9200000  -3.9400000
   2.3500000  -0.5700000  -4.8400000   2.0200000  -0.2700000  -2.7400000
   1.3100000  -0.9400000  -2.0100000   2.8100000  -2.4900000  -3.8400000
   1.7800000  -2.8500000  -3.7600000   3.1500000  -2.8100000  -2.8600000
   3.5600000  -3.2700000  -4.9100000   3.6600000  -2.7700000  -6.2300000
   3.1400000  -1.8500000  -6.4400000   4.1600000  -4.5900000  -4.7100000
   4.1400000  -5.0600000  -3.7400000   4.4800000  -3.3300000  -7.2000000
   4.4900000  -2.9000000  -8.1900000   5.0200000  -5.1100000  -5.6800000
   5.5500000  -6.0300000  -5.5200000   5.1200000  -4.5100000  -6.9400000
   5.7300000  -5.0100000  -7.6700000   2.1100000   1.0400000  -2.4800000
   2.6200000   1.5400000  -3.2000000   1.4300000   1.8500000  -1.4200000
   1.0900000   2.7400000  -1.9600000   0.5200000   1.3900000  -1.0400000
   2.3100000   2.2500000  -0.2900000   3.2800000   1.5700000  -0.0300000
   1.8700000   3.3200000   0.3700000   1.1500000   3.9000000  -0.0400000
   2.5500000   3.7600000   1.5800000   2.3500000   4.8300000   1.6200000
   3.6300000   3.6100000   1.5000000   2.1200000   3.1200000   2.8800000
   1.7200000   1.9800000   2.9500000   2.1600000   3.9100000   3.9500000
   2.4400000   4.8600000   3.7700000   2.0000000   3.4800000   5.3600000
   2.5000000   2.5200000   5.3200000   0.4700000   3.2900000   5.8500000
   0.3100000   3.0900000   7.0200000   2.7100000   4.4000000   6.3400000
   2.3300000   5.4000000   6.1500000   2.4700000   3.9800000   7.3200000
   4.1700000   4.4300000   6.3000000   4.6600000   3.4500000   6.3900000
   4.5000000   4.8900000   5.3700000   4.7600000   5.2900000   7.4400000
   5.8300000   5.0800000   7.5000000   4.3500000   5.0800000   8.4300000
   4.4000000   6.8000000   7.1200000   4.2900000   6.8700000   6.0400000
   3.4500000   6.9200000   7.6500000   5.4000000   7.7600000   7.5400000
   5.6400000   7.6000000   8.5100000   4.9100000   8.6400000   7.6000000
   6.1500000   7.8600000   6.8700000  -0.5100000   3.4600000   4.9400000
  -0.2800000   3.7400000   4.0000000  -1.9700000   3.2500000   5.0300000
  -2.3500000   3.9900000   4.3200000  -2.3300000   3.4500000   6.0300000
  -2.5000000   1.9200000   4.5000000  -1.8500000   0.9800000   4.1700000
  -3.8000000   1.8400000   4.3800000  -4.3400000   2.5700000   4.8200000
  -4.5100000   0.7300000   3.7300000  -5.2400000   1.1100000   3.0100000
  -3.7500000   0.1200000   3.2400000  -5.4300000  -0.1400000   4.6000000
  -5.5200000  -0.0200000   5.8600000  -6.0800000  -1.0100000   3.8300000
  -6.2200000  -0.8500000   2.8400000  -7.0500000  -2.0500000   4.2700000
  -7.7200000  -1.6400000   5.0300000  -6.5200000  -2.8800000   4.7400000
  -7.8200000  -2.6000000   3.0800000  -7.5300000  -2.2800000   1.9600000
  -8.6700000  -3.5100000   3.3600000  -8.9500000  -3.6200000   4.3200000
  -9.2800000  -4.4900000   2.4000000 -10.0300000  -4.1500000   1.6900000
  -8.4800000  -4.9500000   1.8100000 -10.0500000  -5.5000000   3.2000000
 -10.4700000  -5.2600000   4.2800000 -10.1500000  -6.6800000   2.6400000
  -9.7000000  -6.7400000   1.7300000 -10.8300000  -7.8500000   3.3900000
 -11.7000000  -7.4800000   3.9200000  -9.8700000  -8.5100000   4.3600000
  -9.4900000  -9.6400000   4.2300000 -11.3300000  -8.7600000   2.3200000
 -11.7500000  -9.6300000   2.8200000 -10.5100000  -9.1500000   1.7300000
 -12.4400000  -8.0600000   1.4800000 -12.4500000  -8.7900000   0.6700000
 -12.1200000  -7.1500000   0.9700000 -13.7800000  -8.0100000   2.2400000
 -14.0900000  -9.0900000   2.7500000 -14.5500000  -7.0400000   2.1900000
  -9.3600000  -7.7200000   5.3000000  -9.6800000  -6.7600000   5.2800000
  -8.2000000  -8.0300000   6.1700000  -8.5200000  -8.8300000   6.8500000
  -7.4800000  -8.3800000   5.4300000  -7.5900000  -6.9400000   7.0300000
  -8.0900000  -5.8400000   7.1400000  -6.4900000  -7.2300000   7.6900000
  -6.1500000  -8.1700000   7.5600000  -5.5400000  -6.3300000   8.4300000
  -5.9700000  -5.3300000   8.4700000  -4.2700000  -6.2500000   7.6400000
  -3.6600000  -7.2800000   7.3900000  -5.4000000  -6.7600000   9.9300000
  -5.1600000  -7.8200000  10.0300000  -6.7000000  -6.6100000  10.7100000
  -7.4400000  -7.2400000  10.2100000  -7.0900000  -5.5900000  10.6500000
  -4.2600000  -5.9800000  10.5700000  -4.3400000  -4.9200000  10.3300000
  -4.0800000  -6.0300000  11.6500000  -3.3000000  -6.3000000  10.1600000
  -6.6500000  -6.8200000  12.1600000  -7.6800000  -7.0700000  12.4100000
  -5.9600000  -7.5900000  12.5000000  -6.4000000  -5.8900000  12.6800000
  -3.8200000  -5.0500000   7.3600000  -4.2900000  -4.1800000   7.5700000
  -2.7700000  -4.7900000   6.3100000  -2.8100000  -5.6400000   5.6300000
  -1.7500000  -4.7400000   6.7100000  -3.0700000  -3.5200000   5.4900000
  -4.0300000  -2.8300000   5.8100000  -2.1400000  -3.2300000   4.5800000
  -1.4600000  -3.9500000   4.3500000  -1.9500000  -1.9800000   3.8200000
  -1.8300000  -1.1500000   4.5300000  -2.7400000  -1.6600000   3.1400000
  -0.6700000  -2.0100000   2.9300000  -0.2400000  -3.1300000   2.5600000
  -0.2500000  -0.8100000   2.4300000  -0.6900000   0.0200000   2.7900000
   0.8000000  -0.7200000   1.4000000   0.8800000   0.3300000   1.1100000
   0.3900000  -1.3000000   0.5700000   2.1700000  -1.2200000   1.6700000
   2.5800000  -1.1900000   2.8500000   2.8200000  -1.6800000   0.6000000
   2.3300000  -1.5600000  -0.2700000   4.0600000  -2.3800000   0.5500000
   4.4700000  -2.4000000   1.5600000   5.1100000  -1.5600000  -0.2800000
   4.7800000  -1.0900000  -1.3600000   4.0000000  -3.8200000  -0.0300000
   3.4700000  -3.8300000  -0.9900000   5.0400000  -4.1300000  -0.1100000
   3.2200000  -4.8400000   0.8900000   2.2300000  -4.4000000   0.9900000
   3.8900000  -5.1900000   2.2300000   3.4500000  -6.1200000   2.5900000
   3.6000000  -4.4600000   2.9900000   4.9600000  -5.3200000   2.0700000
   3.2200000  -6.1800000   0.1400000   2.7600000  -6.1700000  -0.8500000
   4.2400000  -6.5200000  -0.0400000   2.8100000  -6.9600000   0.7900000
   6.3300000  -1.4900000   0.2100000   6.5400000  -2.0100000   1.0400000
   7.4100000  -0.5700000  -0.2500000   8.3700000  -0.8500000   0.1800000
   7.4500000  -0.7600000  -1.3200000   7.1600000   0.9300000   0.0100000
   6.7100000   1.4000000   1.0200000   7.4300000   1.7900000  -0.9900000
   7.8400000   1.4000000  -1.8200000   7.0400000   3.2200000  -1.0300000
   7.4200000   3.7500000  -1.9100000   5.9500000   3.2200000  -0.9400000
   7.6900000   4.0500000   0.0900000   8.7200000   3.6900000   0.7300000
   7.1000000   5.2900000   0.1900000   6.2800000   5.4200000  -0.3900000
   7.4800000   6.4700000   1.1100000   7.6500000   6.0800000   2.1100000
   6.1600000   7.2500000   1.3100000   5.5000000   7.6000000   0.3200000
   8.6500000   7.3700000   0.6400000   8.3200000   7.8900000  -0.2600000
   9.5700000   6.8300000   0.4600000   8.9800000   8.3200000   1.6900000
   9.8500000   8.2000000   2.0700000   5.7800000   7.7200000   2.5900000
   6.3300000   7.4200000   3.3800000   4.6000000   8.5800000   2.8200000
   4.3800000   9.2500000   1.9900000   4.8200000   9.1600000   3.7200000
   3.3400000   7.7100000   3.1900000   3.3100000   6.4900000   3.1200000
   2.1700000   8.3700000   3.5500000   2.1900000   9.3700000   3.4500000
   0.8700000   7.6600000   3.7500000   1.0800000   6.8000000   4.3900000
   0.1600000   7.2900000   2.4200000   0.5500000   7.7000000   1.3300000
  -0.0300000   8.5800000   4.6200000  -0.2800000   9.4600000   4.0300000
   0.5800000   8.9500000   5.4400000  -1.3400000   7.9200000   5.1800000
  -1.5700000   6.6900000   5.1300000  -2.2000000   8.6600000   5.7200000
  -0.9300000   6.5400000   2.4900000  -1.3300000   6.3200000   3.3900000
  -1.5200000   5.9300000   1.2800000  -1.0400000   6.2600000   0.3600000
  -2.5700000   6.1900000   1.1900000  -1.4100000   4.3900000   1.2800000
  -0.7700000   3.8900000   2.1600000  -1.9800000   3.7000000   0.3300000
  -2.7800000   4.0800000  -0.1500000  -1.9600000   2.2300000   0.2900000
  -1.3900000   1.8200000   1.1200000  -1.5000000   1.8500000  -0.6200000
  -3.3700000   1.6000000   0.3900000  -4.3300000   2.3100000   0.6700000
  -3.5300000   0.3400000   0.0400000  -2.8000000  -0.1900000  -0.4100000
  -4.7500000  -0.4600000   0.2600000  -4.5200000  -1.1300000   1.0900000
  -5.5100000   0.2400000   0.6000000  -5.2800000  -1.1900000  -0.9600000
  -6.0800000  -0.6400000  -1.6800000  -4.8500000  -2.4900000  -1.1400000
  -4.0900000  -2.8100000  -0.5700000  -5.4100000  -3.3900000  -2.0900000
  -6.2000000  -2.8500000  -2.6100000  -6.2400000  -4.5400000  -1.4900000
  -7.4800000  -4.7200000  -1.7900000  -4.3400000  -3.8000000  -3.1400000
  -3.9200000  -2.9300000  -3.6600000  -3.5500000  -4.3300000  -2.6200000
  -4.7400000  -4.7700000  -4.1800000  -4.7200000  -6.1100000  -3.9900000
  -4.2700000  -6.6000000  -3.1300000  -5.0800000  -4.5800000  -5.5600000
  -4.8700000  -6.7400000  -5.2000000  -4.5800000  -7.7000000  -5.3800000
  -5.0900000  -5.8500000  -6.2200000  -5.4000000  -3.4600000  -6.2900000
  -5.3400000  -2.5200000  -5.7600000  -5.3900000  -5.9700000  -7.6000000
  -5.5200000  -6.9200000  -8.1100000  -5.6600000  -3.5500000  -7.6500000
  -5.8400000  -2.6600000  -8.2300000  -5.6000000  -4.7500000  -8.3200000
  -5.9400000  -4.7700000  -9.3400000  -5.6600000  -5.4400000  -0.8700000
   1.6790000  -5.2220000  -3.3290000   2.3660000  -5.8980000  -2.2920000
   1.5960000  -6.1050000  -1.1780000   1.4020000  -7.3920000  -0.7630000
   0.6990000  -7.6380000   0.3850000   0.1750000  -6.6090000   1.1210000
  -0.5280000  -6.8750000   2.3990000  -0.0510000  -6.4500000   3.4680000
  -1.7990000  -7.6460000   2.4250000  -2.1100000  -8.3760000   3.5790000
  -3.2990000  -9.1050000   3.6180000  -4.1860000  -9.0590000   2.5230000
  -3.8650000  -8.3090000   1.4210000  -2.6810000  -7.5850000   1.3720000
   0.3760000  -5.2530000   0.7210000  -0.1200000  -4.2660000   1.4590000
   1.0840000  -5.0320000  -0.4540000   0.9596032  -4.5141220  -2.8915334
   2.4017443  -4.6731308  -3.9505974   1.1418673  -5.9535088  -3.9505974
   1.8097284  -8.2281926  -1.3499748   0.5530133  -8.6752814   0.7207606
  -1.4272870  -8.3746549   4.4414970  -3.5437405  -9.7140250   4.5007177
  -5.1306133  -9.6218736   2.5526496  -4.5544698  -8.2804137   0.5643704
  -2.4495072  -6.9646977   0.4935718   0.0177990  -3.3249628   1.1841174
   1.2406152  -4.0043491  -0.8137294
