
  417  0.0000000e+00
   9.5100000  -5.3400000  -0.0100000  10.4800000  -5.3700000   0.2400000
   9.1000000  -6.2100000   0.3100000   9.4700000  -5.3000000  -1.0200000
   8.8000000  -4.2200000   0.6000000   9.0700000  -3.2500000   0.1700000
   9.1800000  -4.1000000   2.1000000   9.3500000  -5.1700000   2.7200000
   7.3100000  -4.4500000   0.4500000   7.0400000  -5.2700000   1.1200000
   6.7500000  -3.6200000   0.8600000   6.8300000  -4.6300000  -1.0000000
   7.4000000  -3.9500000  -2.0700000   8.2300000  -3.2900000  -1.9000000
   5.6600000  -5.3700000  -1.2100000   5.1900000  -5.8200000  -0.3600000
   6.8800000  -4.0400000  -3.3400000   7.3300000  -3.5200000  -4.1800000
   5.0900000  -5.4700000  -2.4900000   4.2400000  -6.1300000  -2.6000000
   5.6700000  -4.7100000  -3.5000000   5.1500000  -4.7200000  -4.4400000
   9.0800000  -2.9200000   2.7200000   9.0400000  -2.7500000   4.1700000
   9.9300000  -3.1600000   4.6400000   7.7900000  -3.5300000   4.7800000
   7.0700000  -4.1000000   4.0000000   8.9500000  -1.1700000   4.3100000
   9.9300000  -0.7100000   4.4700000   8.2500000  -0.9300000   5.1200000
   8.4100000  -0.6700000   3.0200000   7.3200000  -0.5700000   3.0600000
   8.9500000   0.2500000   2.7800000   8.7600000  -1.7000000   2.0000000
   7.9600000  -1.8100000   1.2700000   9.6600000  -1.2600000   1.5800000
   7.5800000  -3.5000000   6.0500000   8.1900000  -2.8500000   6.5400000
   6.3800000  -4.0200000   6.6700000   6.1400000  -5.0400000   6.3600000
   5.2700000  -2.9700000   6.3300000   5.6100000  -1.7900000   6.0600000
   6.6400000  -3.9300000   8.1900000   7.6300000  -4.3500000   8.3700000
   6.6800000  -2.9100000   8.5600000   5.6300000  -4.6700000   8.9500000
   5.4800000  -5.6600000   8.5200000   4.6700000  -4.1700000   8.9200000
   6.1100000  -4.7700000  10.4400000   7.0400000  -5.3300000  10.4100000
   6.3500000  -3.8100000  10.9100000   5.2100000  -5.6000000  11.1900000
   4.2400000  -5.5400000  10.9200000   5.4600000  -6.2100000  12.3000000
   6.6500000  -6.1000000  12.8500000   7.4000000  -5.4700000  12.6100000
   6.7700000  -6.5300000  13.7600000   4.4800000  -6.8800000  12.8200000
   3.6000000  -6.9900000  12.3400000   4.7400000  -7.5600000  13.5300000
   3.9900000  -3.3300000   6.5200000   3.8300000  -4.3000000   6.7400000
   2.8800000  -2.3800000   6.6200000   2.9400000  -1.7000000   5.7700000
   3.0200000  -1.5400000   7.9000000   2.9800000  -2.1000000   9.0000000
   1.6100000  -3.1900000   6.6300000   1.5800000  -3.8000000   7.5300000
   1.7100000  -3.8900000   5.8000000   0.3500000  -2.3900000   6.6600000
   0.4000000  -1.5600000   7.3700000   0.1600000  -1.7600000   5.3500000
   0.2200000  -2.4400000   4.5000000   0.9600000  -1.0200000   5.2700000
  -0.7300000  -1.1300000   5.3000000  -0.8700000  -3.2100000   6.8500000
  -0.9400000  -3.9200000   6.0200000  -0.8200000  -3.6400000   7.8500000
  -1.7500000  -2.5600000   6.8500000   3.0800000  -0.1900000   7.8800000
   2.9800000   0.1800000   6.9500000   3.1500000   0.7000000   9.0500000
   2.7600000   0.2600000   9.9700000   2.2800000   1.9300000   8.8700000
   1.7300000   2.3700000   9.8800000   4.6500000   1.0800000   9.3600000
   5.1000000   1.7200000   8.6000000   4.7100000   1.6300000  10.3000000
   5.5700000  -0.1600000   9.4700000   5.5900000  -0.7000000   8.5300000
   5.1200000  -0.8700000  10.1700000   7.1100000   0.0200000   9.7100000
   7.4900000   0.5400000   8.8300000   7.5500000  -0.9700000   9.7500000
   7.4500000   0.8600000  10.9600000   7.0800000   0.3100000  11.8200000
   6.9700000   1.8400000  10.9700000   8.9100000   1.0300000  11.1000000
   9.1400000   1.5900000  11.9200000   9.4300000   1.4600000  10.3500000
   9.3700000   0.1900000  11.4300000   2.3500000   2.6100000   7.7300000
   3.0000000   2.3300000   7.0200000   1.7400000   3.9000000   7.5200000
   1.8500000   4.4100000   8.4700000   0.2800000   3.8800000   7.0500000
  -0.1700000   2.9900000   6.3900000   2.4900000   4.7700000   6.5000000
   2.1300000   5.7900000   6.4600000   2.2800000   4.3500000   5.5100000
   4.0400000   4.8400000   6.7100000   4.4300000   3.8700000   7.0200000
   4.6900000   5.0100000   5.2900000   5.7600000   5.2100000   5.3100000
   4.5400000   4.2600000   4.5200000   4.1900000   5.8900000   4.9100000
   4.3300000   5.9600000   7.7500000   5.4200000   6.0100000   7.8100000
   3.9700000   5.6500000   8.7300000   3.9200000   6.9600000   7.6300000
  -0.4800000   4.9300000   7.3400000  -0.1400000   5.6100000   8.0100000
  -1.7500000   5.2800000   6.7400000  -2.4500000   4.5200000   7.0700000
  -1.6900000   5.3300000   5.2100000  -2.4100000   4.6600000   4.5100000
  -2.2700000   6.6300000   7.2900000  -1.6900000   7.5300000   7.0800000
  -2.2700000   6.5800000   8.3800000  -3.7500000   6.8900000   6.9000000
  -4.4600000   6.0800000   7.0900000  -3.7800000   7.0100000   5.8200000
  -4.3600000   8.1600000   7.6300000  -3.6600000   9.0000000   7.5900000
  -4.5400000   8.0000000   8.6900000  -5.7500000   8.4900000   7.0500000
  -6.4400000   7.6600000   7.1900000  -5.7800000   8.5400000   5.9600000
  -6.4000000   9.6600000   7.6800000  -7.4000000   9.6800000   7.5700000
  -6.2300000   9.6800000   8.6700000  -6.0100000  10.4700000   7.2200000
  -0.7200000   6.0100000   4.7000000  -0.1800000   6.6700000   5.2400000
  -0.3800000   6.0200000   3.2700000  -1.2100000   6.4600000   2.7200000
  -0.1400000   4.6500000   2.6400000  -0.4500000   4.5100000   1.4400000
   0.8300000   6.8900000   2.9300000   0.9800000   6.9700000   1.8500000
   0.6400000   7.8700000   3.3700000   2.0500000   6.3500000   3.4500000
   2.3000000   5.6600000   2.8400000   0.4100000   3.6600000   3.4100000
   0.6600000   3.8200000   4.3700000   0.4500000   2.3000000   2.8300000
   1.1500000   2.3200000   2.0000000  -0.9300000   1.7400000   2.6800000
  -1.3000000   1.1900000   1.6600000   1.2000000   1.3100000   3.7900000
   1.4200000   0.4500000   3.1600000   0.5300000   1.0700000   4.6100000
   2.5700000   1.6600000   4.3100000   3.3900000   2.3200000   3.5600000
   2.9100000   1.1400000   5.4300000  -1.7300000   1.8000000   3.7700000
  -1.3000000   2.1900000   4.6000000  -3.0400000   1.1800000   3.8700000
  -2.8800000   0.1400000   3.6000000  -3.9900000   1.7300000   2.8300000
  -4.7200000   1.0000000   2.1700000  -3.6000000   1.3300000   5.2900000
  -4.5400000   0.8000000   5.4700000  -3.6700000   2.3900000   5.5200000
  -2.8400000   0.9300000   5.9600000  -3.9600000   3.1000000   2.6300000
  -3.3800000   3.6100000   3.2700000  -4.6600000   3.7900000   1.5900000
  -5.7300000   3.5900000   1.6300000  -4.2400000   3.4100000   0.1400000
  -5.0500000   3.1300000  -0.7300000  -4.3200000   5.2400000   1.9000000
  -4.6900000   5.7600000   1.0200000  -3.2600000   5.4700000   1.9800000
  -5.0900000   5.7800000   3.0800000  -6.1100000   5.5900000   2.7500000
  -4.9300000   5.2000000   3.9900000  -4.9900000   7.3500000   3.2200000
  -4.1400000   7.8700000   2.4700000  -5.7700000   7.9400000   3.9500000
  -2.9300000   3.3400000  -0.1100000  -2.2600000   3.7800000   0.5200000
  -2.4200000   2.8300000  -1.3600000  -2.9400000   3.4100000  -2.1200000
  -2.6700000   1.3500000  -1.6900000  -3.0100000   1.1000000  -2.8400000
  -0.9200000   3.0300000  -1.4100000  -0.8000000   4.1000000  -1.2600000
  -0.4000000   2.4800000  -0.6400000  -0.6000000   2.6700000  -2.3900000
  -2.5700000   0.4200000  -0.7200000  -2.2200000   0.7700000   0.1600000
  -2.9400000  -0.9500000  -0.9300000  -2.3700000  -1.3600000  -1.7700000
  -4.4800000  -1.0300000  -1.2800000  -4.8200000  -1.7200000  -2.2400000
  -2.7500000  -1.7500000   0.3500000  -3.1300000  -1.1100000   1.1500000
  -1.2000000  -1.9800000   0.4500000  -0.7300000  -1.2200000  -0.1800000
  -0.8400000  -2.8700000  -0.0700000  -3.3600000  -3.2100000   0.2800000
  -3.0000000  -3.8600000   1.0800000  -4.4200000  -3.1000000   0.4800000
  -3.1000000  -3.6700000  -0.6700000  -0.6400000  -2.0000000   1.8400000
  -1.2100000  -1.2800000   2.4300000   0.4200000  -1.7500000   1.7300000
  -0.9100000  -2.9200000   2.3600000  -5.3600000  -0.2100000  -0.6700000
  -5.0600000   0.2800000   0.1600000  -6.7300000  -0.3200000  -0.9800000
  -7.1500000  -1.3200000  -0.8500000  -7.1600000   0.1700000  -2.3900000
  -8.0600000  -0.4800000  -2.9500000  -7.4100000   0.4500000   0.0900000
  -8.4800000   0.2500000   0.0900000  -7.0500000   0.1000000   1.0600000
  -7.1800000   1.5100000  -0.0400000  -6.4800000   1.1800000  -2.9800000
  -5.7500000   1.6100000  -2.4300000  -6.6800000   1.7500000  -4.3300000
  -7.6700000   1.9500000  -4.7300000  -6.1100000   0.7200000  -5.3500000
  -6.7700000   0.4600000  -6.3800000  -5.8100000   3.0200000  -4.3700000
  -6.0600000   3.5000000  -5.3200000  -4.7300000   2.9000000  -4.4200000
  -6.0700000   3.8900000  -3.3300000  -5.5600000   3.6200000  -2.5600000
  -5.0100000   0.0200000  -5.0600000  -4.5000000   0.3500000  -4.2600000
  -4.5200000  -1.1300000  -5.8500000  -4.2800000  -0.8000000  -6.8600000
  -5.4800000  -2.3200000  -6.0200000  -5.5900000  -2.9400000  -7.1000000
  -3.1500000  -1.6200000  -5.3400000  -2.4500000  -0.8000000  -5.4900000
  -3.1000000  -1.8100000  -4.2700000  -2.5700000  -2.7800000  -6.1500000
  -3.1400000  -3.6700000  -5.8900000  -1.5500000  -2.8200000  -5.7700000
  -2.4000000  -2.4500000  -7.6700000  -1.7000000  -1.6300000  -7.7900000
  -3.4000000  -2.1200000  -7.9600000  -1.9900000  -3.6800000  -8.4400000
  -1.0900000  -3.6600000  -8.9000000  -2.7900000  -4.7700000  -8.7000000
  -3.8700000  -4.9100000  -8.1100000  -4.3500000  -4.1100000  -7.7200000
  -4.5000000  -5.6900000  -8.2300000  -2.3500000  -5.6800000  -9.5000000
  -2.8200000  -6.5600000  -9.6900000  -1.4200000  -5.5200000  -9.8700000
  -6.1900000  -2.5600000  -4.9200000  -5.9600000  -2.0100000  -4.1000000
  -7.3800000  -3.4700000  -4.8400000  -7.0700000  -4.3800000  -5.3600000
  -8.5600000  -2.9300000  -5.6500000  -9.3300000  -3.7000000  -6.2000000
  -7.6100000  -3.9500000  -3.3700000  -8.0500000  -3.1300000  -2.8100000
  -8.4400000  -4.6400000  -3.4900000  -6.5300000  -4.5700000  -2.4800000
  -5.5900000  -4.0500000  -2.6300000  -7.0300000  -4.6300000  -1.0100000
  -6.8300000  -3.6600000  -0.5500000  -6.5100000  -5.4200000  -0.4600000
  -8.0900000  -4.8700000  -0.9200000  -6.3600000  -5.9900000  -2.9700000
  -5.7200000  -6.5600000  -2.3000000  -5.9700000  -5.9800000  -3.9900000
  -7.2900000  -6.5600000  -2.8800000  -8.7100000  -1.5900000  -5.8900000
  -8.0600000  -0.9700000  -5.4300000  -9.6500000  -0.9700000  -6.8500000
 -10.4800000  -1.6200000  -7.1200000  -9.1100000  -0.6700000  -8.2800000
  -9.8200000  -0.1500000  -9.1300000 -10.2900000   0.3100000  -6.2100000
  -9.4300000   0.9500000  -6.0200000 -10.9900000   0.8200000  -6.8700000
 -10.8900000   0.1000000  -4.8300000 -11.5400000  -0.9000000  -4.6200000
 -10.8600000   1.0400000  -4.0400000  -7.9000000  -1.1300000  -8.5600000
  -7.4700000  -1.5200000  -7.7400000  -7.0800000  -1.0500000  -9.7500000
  -6.2300000  -1.7200000  -9.5900000  -7.6300000  -1.5500000 -10.5400000
  -6.6100000   0.3100000 -10.2600000  -5.9800000   0.3700000 -11.3000000
  -6.9100000   1.4300000  -9.5000000  -7.2900000   1.2100000  -8.5900000
  -6.6000000   2.8900000  -9.8600000  -6.9200000   3.0700000 -10.8900000
  -5.0800000   3.3200000  -9.8600000  -4.7200000   4.5000000 -10.1300000
  -7.4400000   3.8300000  -8.9200000  -8.4900000   3.6500000  -9.1200000
  -7.2700000   4.8400000  -9.3000000  -7.1500000   3.5400000  -7.5800000
  -7.2600000   4.3400000  -7.0500000  -4.2100000   2.3700000  -9.5800000
  -4.5900000   1.4500000  -9.3800000  -2.7900000   2.6100000  -9.3100000
  -2.3800000   3.3100000 -10.0400000  -1.9600000   1.2600000  -9.4400000
  -2.5000000   0.1900000  -9.2700000  -2.5700000   3.2000000  -7.9000000
  -3.2400000   4.0300000  -7.6800000  -1.3000000   3.6000000  -7.6800000
  -0.9900000   4.0500000  -8.4700000  -2.8400000   2.2400000  -6.8000000
  -2.2900000   1.3000000  -6.8400000  -2.6000000   2.6600000  -5.8200000
  -3.9000000   2.0000000  -6.7400000  -0.6700000   1.3400000  -9.6800000
  -0.1700000   2.2100000  -9.5800000   0.2600000   0.1700000  -9.7300000
  -0.3500000  -0.6300000 -10.1500000   0.7700000  -0.3300000  -8.2700000
   0.4100000   0.2600000  -7.3300000   1.4500000   0.5200000 -10.6200000
   1.0900000   0.8700000 -11.5900000   1.9900000   1.3500000 -10.1700000
   2.1200000  -0.3200000 -10.7600000   1.4600000  -1.4500000  -8.2100000
   1.4000000  -2.1300000  -8.9500000   2.0800000  -1.9800000  -6.9500000
   1.4300000  -2.0200000  -6.0800000   3.2100000  -1.1300000  -6.3400000
   4.1200000  -1.6700000  -5.7500000   2.3900000  -3.5000000  -7.1500000
   3.2900000  -3.7700000  -6.5900000   2.7300000  -3.6200000  -8.1800000
   1.3300000  -4.5100000  -6.8400000   1.0300000  -5.5600000  -7.6600000
   1.4800000  -5.8200000  -8.6100000   0.5200000  -4.6400000  -5.6600000
   0.0000000  -6.2600000  -7.1000000  -0.4100000  -7.0600000  -7.5700000
  -0.3600000  -5.7600000  -5.9100000   0.3500000  -3.9500000  -4.4800000
   1.0600000  -3.2200000  -4.1300000  -1.4800000  -5.9400000  -5.0900000
  -2.1900000  -6.7200000  -5.3500000  -0.7200000  -4.2400000  -3.5400000
  -0.8300000  -3.6500000  -2.6400000  -1.6900000  -5.2000000  -3.9100000
  -2.5900000  -5.4100000  -3.3500000   3.1700000   0.1700000  -6.5100000
   2.4000000   0.5700000  -7.0200000   4.2800000   1.1100000  -6.0100000
   5.0400000   0.5900000  -5.4200000   3.5100000   2.1200000  -5.1700000
   2.2900000   2.3500000  -5.4600000   5.0800000   1.8100000  -7.2000000
   5.6600000   2.6800000  -6.8900000   4.2200000   2.1600000  -8.2500000
   3.4200000   2.5400000  -7.8900000   6.0400000   0.8200000  -7.8200000
   6.4700000   1.1300000  -8.7700000   5.4200000  -0.0400000  -8.0600000
   6.8500000   0.5700000  -7.1200000   4.2300000   2.8200000  -4.2400000
   5.1800000   2.4900000  -4.1600000   3.8200000   4.1200000  -3.6800000
   2.8000000   4.0800000  -3.3100000   3.9200000   5.2100000  -4.7400000
   5.0600000   5.4400000  -5.2600000   4.7500000   4.4200000  -2.4500000
   4.3100000   5.3200000  -2.0100000   5.7000000   4.6400000  -2.9400000
   4.7800000   3.2800000  -1.3000000   5.9200000   2.7800000  -1.0900000
   3.7100000   3.0500000  -0.7100000   2.9500000   5.9300000  -5.0200000
   2.0170000   1.2080000  -4.9840000   2.0620000  -0.0490000  -4.3020000
   2.8390000  -0.2210000  -3.1940000   2.8440000  -1.4760000  -2.5850000
   3.6110000  -1.6980000  -1.4500000   4.3710000  -0.6820000  -0.8970000
   5.1840000  -0.9270000   0.3380000   5.9790000  -0.0700000   0.7150000
   5.0570000  -2.2060000   1.0980000   6.1270000  -2.9980000   1.3070000
   6.0920000  -4.1760000   2.0310000   4.8900000  -4.6000000   2.5440000
   3.7600000  -3.8210000   2.3390000   3.8540000  -2.6330000   1.6140000
   4.3780000   0.5880000  -1.5100000   5.1410000   1.5860000  -0.9770000
   3.6080000   0.7970000  -2.6530000   1.9878000   2.0241000  -4.2471000
   2.9119000   1.3153000  -5.6146000   1.1167000   1.2510000  -5.6146000
   2.2382000  -2.2921000  -3.0057000   3.6150000  -2.6943000  -0.9838000
   7.0896000  -2.6879000   0.8743000   7.0087000  -4.7620000   2.1929000
   4.8244000  -5.5420000   3.1082000   2.7902000  -4.1403000   2.7482000
   2.9508000  -2.0264000   1.4516000   5.1520000   2.4807000  -1.4007000
   3.6108000   1.7865000  -3.1336000
