%VERSION  VERSION_STAMP = V0001.000  DATE = 10/05/26  18:40:34
%FLAG TITLE
%FORMAT(20a4)

%FLAG POINTERS
%FORMAT(10I8)
     417      20     206     215     464     290     869     706       0       0
    2280      26     215     290     706      32      47    1165       1       0
       0       0       0       0       0       0       0       0      29       0
       0
%FLAG ATOM_NAME
%FORMAT(20a4)
N   H   H2  H3  CA  HA  C   O   CB  HB2 HB3 CG  CD1 HD1 CD2 HD2 CE1 HE1 CE2 HE2 
CZ  HZ  N   CA  HA  C   O   CB  HB2 HB3 CG  HG2 HG3 CD  HD2 HD3 N   H   CA  HA  
C   O   CB  HB2 HB3 CG  HG2 HG3 CD  HD2 HD3 NE  HE  CZ  NH1 HH11HH12NH2 HH21HH22
N   H   CA  HA  C   O   CB  HB2 HB3 CG  HG  CD1 HD11HD12HD13CD2 HD21HD22HD23N   
H   CA  HA  C   O   CB  HB2 HB3 CG  HG2 HG3 CD  HD2 HD3 CE  HE2 HE3 NZ  HZ1 HZ2 
HZ3 N   H   CA  HA  C   O   CB  HB2 HB3 CG  HG  CD1 HD11HD12HD13CD2 HD21HD22HD23
N   H   CA  HA  C   O   CB  HB2 HB3 CG  HG2 HG3 CD  HD2 HD3 CE  HE2 HE3 NZ  HZ1 
HZ2 HZ3 N   H   CA  HA  C   O   CB  HB2 HB3 OG  HG  N   H   CA  HA  C   O   CB  
HB2 HB3 CG  OD1 OD2 N   H   CA  HA  C   O   CB  HB1 HB2 HB3 N   H   CA  HA  C   
O   CB  HB2 HB3 CG  HG2 HG3 CD  OE1 OE2 N   H   CA  HA  C   O   CB  HB1 HB2 HB3 
N   H   CA  HA  C   O   CB  HB  CG1 HG12HG13CG2 HG21HG22HG23CD1 HD11HD12HD13N   
H   CA  HA  C   O   CB  HB1 HB2 HB3 N   H   CA  HA  C   O   CB  HB2 HB3 OG  HG  
N   H   CA  HA  C   O   CB  HB2 HB3 CG  HG2 HG3 CD  HD2 HD3 NE  HE  CZ  NH1 HH11
HH12NH2 HH21HH22N   H   CA  HA  C   O   CB  HB2 HB3 CG  HG  CD1 HD11HD12HD13CD2 
HD21HD22HD23N   H   CA  HA  C   O   CB  HB2 HB3 CG  OD1 OD2 N   H   CA  HA2 HA3 
C   O   N   H   CA  HA  C   O   CB  HB2 HB3 OG  HG  N   H   CA  HA  C   O   CB  
HB  OG1 HG1 CG2 HG21HG22HG23N   H   CA  HA  C   O   CB  HB1 HB2 HB3 N   H   CA  
HA  C   O   CB  HB2 HB3 CG  CD1 HD1 CD2 NE1 HE1 CE2 CE3 HE3 CZ2 HZ2 CZ3 HZ3 CH2 
HH2 N   H   CA  HA  C   O   CB  HB  OG1 HG1 CG2 HG21HG22HG23N   H   CA  HA  C   
O   CB  HB2 HB3 CG  OD1 OD2 OXT C1x O1x C2x C3x C4x C5x C6x O2x C7x C8x C9x C10x
C11xC12xC13xO3x C14xH1x H2x H3x H4x H5x H6x H7x H8x H9x H10xH11xH12x
%FLAG CHARGE
%FORMAT(5E16.8)
  3.16521351E+00  3.50050383E+00  3.50050383E+00  3.50050383E+00  1.33569459E+00
  1.89694143E+00  1.11575143E+01 -1.04104000E+01  6.01335900E-01  1.89511920E-01
  1.89511920E-01  5.64891300E-02 -2.53654416E+00  2.50374402E+00 -2.53472193E+00
  2.50374402E+00 -2.91921246E+00  2.61125559E+00 -2.92103469E+00  2.61125559E+00
 -2.20125384E+00  2.42174367E+00 -4.64304204E+00 -4.84713180E-01  1.16804943E+00
  1.07438681E+01 -1.04741780E+01 -1.27556100E-01  4.61024190E-01  4.61024190E-01
  3.44401470E-01  3.88134990E-01  3.88134990E-01  3.49868160E-01  7.12491930E-01
  7.12491930E-01 -6.33953817E+00  5.00566581E+00 -4.80522051E+00  2.84267880E+00
  1.33769904E+01 -1.07402236E+01 -1.27556100E-02  5.95869210E-01  5.95869210E-01
  7.10669700E-01  5.19335550E-01  5.19335550E-01  8.85603780E-01  1.25187201E+00
  1.25187201E+00 -9.64870785E+00  6.29762688E+00  1.47163295E+01 -1.57203782E+01
  8.15994594E+00  8.15994594E+00 -1.57203782E+01  8.15994594E+00  8.15994594E+00
 -7.57501011E+00  4.95464337E+00 -9.43915140E-01  1.68009606E+00  1.08841798E+01
 -1.03484442E+01 -2.00809746E+00  8.32759110E-01  8.32759110E-01  6.43429413E+00
 -6.57825030E-01 -7.50940983E+00  1.82223000E+00  1.82223000E+00  1.82223000E+00
 -7.50940983E+00  1.82223000E+00  1.82223000E+00  1.82223000E+00 -6.33953817E+00
  5.00566581E+00 -4.37335200E+00  2.59849998E+00  1.33769904E+01 -1.07402236E+01
 -1.71289620E-01  6.59647260E-01  6.59647260E-01  3.40757010E-01  1.87689690E-01
  1.87689690E-01 -8.72848170E-01  1.13160483E+00  1.13160483E+00 -2.60578890E-01
  2.06823105E+00  2.06823105E+00 -7.02287442E+00  6.19558200E+00  6.19558200E+00
  6.19558200E+00 -7.57501011E+00  4.95464337E+00 -9.43915140E-01  1.68009606E+00
  1.08841798E+01 -1.03484442E+01 -2.00809746E+00  8.32759110E-01  8.32759110E-01
  6.43429413E+00 -6.57825030E-01 -7.50940983E+00  1.82223000E+00  1.82223000E+00
  1.82223000E+00 -7.50940983E+00  1.82223000E+00  1.82223000E+00  1.82223000E+00
 -6.33953817E+00  5.00566581E+00 -4.37335200E+00  2.59849998E+00  1.33769904E+01
 -1.07402236E+01 -1.71289620E-01  6.59647260E-01  6.59647260E-01  3.40757010E-01
  1.87689690E-01  1.87689690E-01 -8.72848170E-01  1.13160483E+00  1.13160483E+00
 -2.60578890E-01  2.06823105E+00  2.06823105E+00 -7.02287442E+00  6.19558200E+00
  6.19558200E+00  6.19558200E+00 -7.57501011E+00  4.95464337E+00 -4.53735270E-01
  1.53613989E+00  1.08841798E+01 -1.03484442E+01  3.85766091E+00  6.41424960E-01
  6.41424960E-01 -1.19283176E+01  7.79003325E+00 -9.40817349E+00  5.35006728E+00
  6.94269630E-01  1.60356240E+00  9.77808618E+00 -1.06035564E+01 -5.52135690E-01
 -2.22312060E-01 -2.22312060E-01  1.45669066E+01 -1.46033512E+01 -1.46033512E+01
 -7.57501011E+00  4.95464337E+00  6.14091510E-01  1.49969529E+00  1.08841798E+01
 -1.03484442E+01 -3.32556975E+00  1.09880469E+00  1.09880469E+00  1.09880469E+00
 -9.40817349E+00  5.35006728E+00  7.23425310E-01  2.01356415E+00  9.77808618E+00
 -1.06035564E+01  1.02044880E+00 -3.15245790E-01 -3.15245790E-01  2.47823280E-01
 -7.74447750E-01 -7.74447750E-01  1.46762404E+01 -1.49204192E+01 -1.49204192E+01
 -7.57501011E+00  4.95464337E+00  6.14091510E-01  1.49969529E+00  1.08841798E+01
 -1.03484442E+01 -3.32556975E+00  1.09880469E+00  1.09880469E+00  1.09880469E+00
 -7.57501011E+00  4.95464337E+00 -1.08787131E+00  1.58351787E+00  1.08841798E+01
 -1.03484442E+01  2.37436569E+00  3.40757010E-01 -7.83558900E-01  4.30046280E-01
  4.30046280E-01 -5.83842492E+00  1.60720686E+00  1.60720686E+00  1.60720686E+00
 -1.20267180E+00  3.38934780E-01  3.38934780E-01  3.38934780E-01 -7.57501011E+00
  4.95464337E+00  6.14091510E-01  1.49969529E+00  1.08841798E+01 -1.03484442E+01
 -3.32556975E+00  1.09880469E+00  1.09880469E+00  1.09880469E+00 -7.57501011E+00
  4.95464337E+00 -4.53735270E-01  1.53613989E+00  1.08841798E+01 -1.03484442E+01
  3.85766091E+00  6.41424960E-01  6.41424960E-01 -1.19283176E+01  7.79003325E+00
 -6.33953817E+00  5.00566581E+00 -4.80522051E+00  2.84267880E+00  1.33769904E+01
 -1.07402236E+01 -1.27556100E-02  5.95869210E-01  5.95869210E-01  7.10669700E-01
  5.19335550E-01  5.19335550E-01  8.85603780E-01  1.25187201E+00  1.25187201E+00
 -9.64870785E+00  6.29762688E+00  1.47163295E+01 -1.57203782E+01  8.15994594E+00
  8.15994594E+00 -1.57203782E+01  8.15994594E+00  8.15994594E+00 -7.57501011E+00
  4.95464337E+00 -9.43915140E-01  1.68009606E+00  1.08841798E+01 -1.03484442E+01
 -2.00809746E+00  8.32759110E-01  8.32759110E-01  6.43429413E+00 -6.57825030E-01
 -7.50940983E+00  1.82223000E+00  1.82223000E+00  1.82223000E+00 -7.50940983E+00
  1.82223000E+00  1.82223000E+00  1.82223000E+00 -9.40817349E+00  5.35006728E+00
  6.94269630E-01  1.60356240E+00  9.77808618E+00 -1.06035564E+01 -5.52135690E-01
 -2.22312060E-01 -2.22312060E-01  1.45669066E+01 -1.46033512E+01 -1.46033512E+01
 -7.57501011E+00  4.95464337E+00 -4.59201960E-01  1.27191654E+00  1.27191654E+00
  1.08841798E+01 -1.03484442E+01 -7.57501011E+00  4.95464337E+00 -4.53735270E-01
  1.53613989E+00  1.08841798E+01 -1.03484442E+01  3.85766091E+00  6.41424960E-01
  6.41424960E-01 -1.19283176E+01  7.79003325E+00 -7.57501011E+00  4.95464337E+00
 -7.08847470E-01  1.83498561E+00  1.08841798E+01 -1.03484442E+01  6.65842842E+00
  7.83558900E-02 -1.23200970E+01  7.47478746E+00 -4.44259674E+00  1.16987166E+00
  1.16987166E+00  1.16987166E+00 -7.57501011E+00  4.95464337E+00  6.14091510E-01
  1.49969529E+00  1.08841798E+01 -1.03484442E+01 -3.32556975E+00  1.09880469E+00
  1.09880469E+00  1.09880469E+00 -7.57501011E+00  4.95464337E+00 -5.01113250E-01
  2.04636429E+00  1.08841798E+01 -1.03484442E+01 -9.11115000E-02  6.17735970E-01
  6.17735970E-01 -2.57845545E+00 -2.98481274E+00  3.75743826E+00  2.26503189E+00
 -6.22838214E+00  6.21744876E+00  2.51467740E+00 -4.34966301E+00  3.09779100E+00
 -4.73962023E+00  2.86454556E+00 -3.59343756E+00  2.63676681E+00 -2.06640882E+00
  2.58209991E+00 -7.57501011E+00  4.95464337E+00 -7.08847470E-01  1.83498561E+00
  1.08841798E+01 -1.03484442E+01  6.65842842E+00  7.83558900E-02 -1.23200970E+01
  7.47478746E+00 -4.44259674E+00  1.16987166E+00  1.16987166E+00  1.16987166E+00
 -9.46101816E+00  5.56691265E+00 -3.31099191E+00  1.90605258E+00  1.32221009E+01
 -1.43719280E+01 -1.23364971E+00 -3.86312760E-01 -3.86312760E-01  1.61285577E+01
 -1.48730413E+01 -1.48730413E+01 -1.43719280E+01  2.03605864E+00 -5.82868604E+00
  3.41002006E+00 -4.68250337E+00 -3.45595973E-01 -5.38588415E+00  1.10670305E+01
 -1.03514609E+01 -2.99876285E+00 -1.59382352E+00 -2.57782772E+00 -1.93093607E+00
 -2.57782772E+00 -1.59382352E+00  4.19357896E+00 -9.07589990E+00 -3.95361137E+00
  8.81985711E-01  8.81985711E-01  8.81985711E-01  2.60641663E+00  2.64286123E+00
  2.67019468E+00  2.50619398E+00  2.46063823E+00  2.50619398E+00  2.67019468E+00
  8.34644113E+00  3.13486333E+00
%FLAG ATOMIC_NUMBER
%FORMAT(10I8)
       7       1       1       1       6       1       6       8       6       1
       1       6       6       1       6       1       6       1       6       1
       6       1       7       6       1       6       8       6       1       1
       6       1       1       6       1       1       7       1       6       1
       6       8       6       1       1       6       1       1       6       1
       1       7       1       6       7       1       1       7       1       1
       7       1       6       1       6       8       6       1       1       6
       1       6       1       1       1       6       1       1       1       7
       1       6       1       6       8       6       1       1       6       1
       1       6       1       1       6       1       1       7       1       1
       1       7       1       6       1       6       8       6       1       1
       6       1       6       1       1       1       6       1       1       1
       7       1       6       1       6       8       6       1       1       6
       1       1       6       1       1       6       1       1       7       1
       1       1       7       1       6       1       6       8       6       1
       1       8       1       7       1       6       1       6       8       6
       1       1       6       8       8       7       1       6       1       6
       8       6       1       1       1       7       1       6       1       6
       8       6       1       1       6       1       1       6       8       8
       7       1       6       1       6       8       6       1       1       1
       7       1       6       1       6       8       6       1       6       1
       1       6       1       1       1       6       1       1       1       7
       1       6       1       6       8       6       1       1       1       7
       1       6       1       6       8       6       1       1       8       1
       7       1       6       1       6       8       6       1       1       6
       1       1       6       1       1       7       1       6       7       1
       1       7       1       1       7       1       6       1       6       8
       6       1       1       6       1       6       1       1       1       6
       1       1       1       7       1       6       1       6       8       6
       1       1       6       8       8       7       1       6       1       1
       6       8       7       1       6       1       6       8       6       1
       1       8       1       7       1       6       1       6       8       6
       1       8       1       6       1       1       1       7       1       6
       1       6       8       6       1       1       1       7       1       6
       1       6       8       6       1       1       6       6       1       6
       7       1       6       6       1       6       1       6       1       6
       1       7       1       6       1       6       8       6       1       8
       1       6       1       1       1       7       1       6       1       6
       8       6       1       1       6       8       8       8       6       8
       6       6       6       6       6       8       6       6       6       6
       6       6       6       8       6       1       1       1       1       1
       1       1       1       1       1       1       1
%FLAG MASS
%FORMAT(5E16.8)
  1.40067200E+01  1.00794700E+00  1.00794700E+00  1.00794700E+00  1.20107800E+01
  1.00794700E+00  1.20107800E+01  1.59994300E+01  1.20107800E+01  1.00794700E+00
  1.00794700E+00  1.20107800E+01  1.20107800E+01  1.00794700E+00  1.20107800E+01
  1.00794700E+00  1.20107800E+01  1.00794700E+00  1.20107800E+01  1.00794700E+00
  1.20107800E+01  1.00794700E+00  1.40067200E+01  1.20107800E+01  1.00794700E+00
  1.20107800E+01  1.59994300E+01  1.20107800E+01  1.00794700E+00  1.00794700E+00
  1.20107800E+01  1.00794700E+00  1.00794700E+00  1.20107800E+01  1.00794700E+00
  1.00794700E+00  1.40067200E+01  1.00794700E+00  1.20107800E+01  1.00794700E+00
  1.20107800E+01  1.59994300E+01  1.20107800E+01  1.00794700E+00  1.00794700E+00
  1.20107800E+01  1.00794700E+00  1.00794700E+00  1.20107800E+01  1.00794700E+00
  1.00794700E+00  1.40067200E+01  1.00794700E+00  1.20107800E+01  1.40067200E+01
  1.00794700E+00  1.00794700E+00  1.40067200E+01  1.00794700E+00  1.00794700E+00
  1.40067200E+01  1.00794700E+00  1.20107800E+01  1.00794700E+00  1.20107800E+01
  1.59994300E+01  1.20107800E+01  1.00794700E+00  1.00794700E+00  1.20107800E+01
  1.00794700E+00  1.20107800E+01  1.00794700E+00  1.00794700E+00  1.00794700E+00
  1.20107800E+01  1.00794700E+00  1.00794700E+00  1.00794700E+00  1.40067200E+01
  1.00794700E+00  1.20107800E+01  1.00794700E+00  1.20107800E+01  1.59994300E+01
  1.20107800E+01  1.00794700E+00  1.00794700E+00  1.20107800E+01  1.00794700E+00
  1.00794700E+00  1.20107800E+01  1.00794700E+00  1.00794700E+00  1.20107800E+01
  1.00794700E+00  1.00794700E+00  1.40067200E+01  1.00794700E+00  1.00794700E+00
  1.00794700E+00  1.40067200E+01  1.00794700E+00  1.20107800E+01  1.00794700E+00
  1.20107800E+01  1.59994300E+01  1.20107800E+01  1.00794700E+00  1.00794700E+00
  1.20107800E+01  1.00794700E+00  1.20107800E+01  1.00794700E+00  1.00794700E+00
  1.00794700E+00  1.20107800E+01  1.00794700E+00  1.00794700E+00  1.00794700E+00
  1.40067200E+01  1.00794700E+00  1.20107800E+01  1.00794700E+00  1.20107800E+01
  1.59994300E+01  1.20107800E+01  1.00794700E+00  1.00794700E+00  1.20107800E+01
  1.00794700E+00  1.00794700E+00  1.20107800E+01  1.00794700E+00  1.00794700E+00
  1.20107800E+01  1.00794700E+00  1.00794700E+00  1.40067200E+01  1.00794700E+00
  1.00794700E+00  1.00794700E+00  1.40067200E+01  1.00794700E+00  1.20107800E+01
  1.00794700E+00  1.20107800E+01  1.59994300E+01  1.20107800E+01  1.00794700E+00
  1.00794700E+00  1.59994300E+01  1.00794700E+00  1.40067200E+01  1.00794700E+00
  1.20107800E+01  1.00794700E+00  1.20107800E+01  1.59994300E+01  1.20107800E+01
  1.00794700E+00  1.00794700E+00  1.20107800E+01  1.59994300E+01  1.59994300E+01
  1.40067200E+01  1.00794700E+00  1.20107800E+01  1.00794700E+00  1.20107800E+01
  1.59994300E+01  1.20107800E+01  1.00794700E+00  1.00794700E+00  1.00794700E+00
  1.40067200E+01  1.00794700E+00  1.20107800E+01  1.00794700E+00  1.20107800E+01
  1.59994300E+01  1.20107800E+01  1.00794700E+00  1.00794700E+00  1.20107800E+01
  1.00794700E+00  1.00794700E+00  1.20107800E+01  1.59994300E+01  1.59994300E+01
  1.40067200E+01  1.00794700E+00  1.20107800E+01  1.00794700E+00  1.20107800E+01
  1.59994300E+01  1.20107800E+01  1.00794700E+00  1.00794700E+00  1.00794700E+00
  1.40067200E+01  1.00794700E+00  1.20107800E+01  1.00794700E+00  1.20107800E+01
  1.59994300E+01  1.20107800E+01  1.00794700E+00  1.20107800E+01  1.00794700E+00
  1.00794700E+00  1.20107800E+01  1.00794700E+00  1.00794700E+00  1.00794700E+00
  1.20107800E+01  1.00794700E+00  1.00794700E+00  1.00794700E+00  1.40067200E+01
  1.00794700E+00  1.20107800E+01  1.00794700E+00  1.20107800E+01  1.59994300E+01
  1.20107800E+01  1.00794700E+00  1.00794700E+00  1.00794700E+00  1.40067200E+01
  1.00794700E+00  1.20107800E+01  1.00794700E+00  1.20107800E+01  1.59994300E+01
  1.20107800E+01  1.00794700E+00  1.00794700E+00  1.59994300E+01  1.00794700E+00
  1.40067200E+01  1.00794700E+00  1.20107800E+01  1.00794700E+00  1.20107800E+01
  1.59994300E+01  1.20107800E+01  1.00794700E+00  1.00794700E+00  1.20107800E+01
  1.00794700E+00  1.00794700E+00  1.20107800E+01  1.00794700E+00  1.00794700E+00
  1.40067200E+01  1.00794700E+00  1.20107800E+01  1.40067200E+01  1.00794700E+00
  1.00794700E+00  1.40067200E+01  1.00794700E+00  1.00794700E+00  1.40067200E+01
  1.00794700E+00  1.20107800E+01  1.00794700E+00  1.20107800E+01  1.59994300E+01
  1.20107800E+01  1.00794700E+00  1.00794700E+00  1.20107800E+01  1.00794700E+00
  1.20107800E+01  1.00794700E+00  1.00794700E+00  1.00794700E+00  1.20107800E+01
  1.00794700E+00  1.00794700E+00  1.00794700E+00  1.40067200E+01  1.00794700E+00
  1.20107800E+01  1.00794700E+00  1.20107800E+01  1.59994300E+01  1.20107800E+01
  1.00794700E+00  1.00794700E+00  1.20107800E+01  1.59994300E+01  1.59994300E+01
  1.40067200E+01  1.00794700E+00  1.20107800E+01  1.00794700E+00  1.00794700E+00
  1.20107800E+01  1.59994300E+01  1.40067200E+01  1.00794700E+00  1.20107800E+01
  1.00794700E+00  1.20107800E+01  1.59994300E+01  1.20107800E+01  1.00794700E+00
  1.00794700E+00  1.59994300E+01  1.00794700E+00  1.40067200E+01  1.00794700E+00
  1.20107800E+01  1.00794700E+00  1.20107800E+01  1.59994300E+01  1.20107800E+01
  1.00794700E+00  1.59994300E+01  1.00794700E+00  1.20107800E+01  1.00794700E+00
  1.00794700E+00  1.00794700E+00  1.40067200E+01  1.00794700E+00  1.20107800E+01
  1.00794700E+00  1.20107800E+01  1.59994300E+01  1.20107800E+01  1.00794700E+00
  1.00794700E+00  1.00794700E+00  1.40067200E+01  1.00794700E+00  1.20107800E+01
  1.00794700E+00  1.20107800E+01  1.59994300E+01  1.20107800E+01  1.00794700E+00
  1.00794700E+00  1.20107800E+01  1.20107800E+01  1.00794700E+00  1.20107800E+01
  1.40067200E+01  1.00794700E+00  1.20107800E+01  1.20107800E+01  1.00794700E+00
  1.20107800E+01  1.00794700E+00  1.20107800E+01  1.00794700E+00  1.20107800E+01
  1.00794700E+00  1.40067200E+01  1.00794700E+00  1.20107800E+01  1.00794700E+00
  1.20107800E+01  1.59994300E+01  1.20107800E+01  1.00794700E+00  1.59994300E+01
  1.00794700E+00  1.20107800E+01  1.00794700E+00  1.00794700E+00  1.00794700E+00
  1.40067200E+01  1.00794700E+00  1.20107800E+01  1.00794700E+00  1.20107800E+01
  1.59994300E+01  1.20107800E+01  1.00794700E+00  1.00794700E+00  1.20107800E+01
  1.59994300E+01  1.59994300E+01  1.59994300E+01  1.20107800E+01  1.59994300E+01
  1.20107800E+01  1.20107800E+01  1.20107800E+01  1.20107800E+01  1.20107800E+01
  1.59994300E+01  1.20107800E+01  1.20107800E+01  1.20107800E+01  1.20107800E+01
  1.20107800E+01  1.20107800E+01  1.20107800E+01  1.59994300E+01  1.20107800E+01
  1.00794700E+00  1.00794700E+00  1.00794700E+00  1.00794700E+00  1.00794700E+00
  1.00794700E+00  1.00794700E+00  1.00794700E+00  1.00794700E+00  1.00794700E+00
  1.00794700E+00  1.00794700E+00
%FLAG ATOM_TYPE_INDEX
%FORMAT(10I8)
       1       2       2       2       3       4       5       6       3       7
       7       5       5       8       5       8       5       8       5       8
       5       8       1       3       9       5       6       3       7       7
       3       7       7       3       9       9       1       2       3       9
       5       6       3       7       7       3       7       7       3       9
       9       1       2       5       1       2       2       1       2       2
       1       2       3       9       5       6       3       7       7       3
       7       3       7       7       7       3       7       7       7       1
       2       3       9       5       6       3       7       7       3       7
       7       3       7       7       3       4       4       1       2       2
       2       1       2       3       9       5       6       3       7       7
       3       7       3       7       7       7       3       7       7       7
       1       2       3       9       5       6       3       7       7       3
       7       7       3       7       7       3       4       4       1       2
       2       2       1       2       3       9       5       6       3       9
       9      10      11       1       2       3       9       5       6       3
       7       7       5       6       6       1       2       3       9       5
       6       3       7       7       7       1       2       3       9       5
       6       3       7       7       3       7       7       5       6       6
       1       2       3       9       5       6       3       7       7       7
       1       2       3       9       5       6       3       7       3       7
       7       3       7       7       7       3       7       7       7       1
       2       3       9       5       6       3       7       7       7       1
       2       3       9       5       6       3       9       9      10      11
       1       2       3       9       5       6       3       7       7       3
       7       7       3       9       9       1       2       5       1       2
       2       1       2       2       1       2       3       9       5       6
       3       7       7       3       7       3       7       7       7       3
       7       7       7       1       2       3       9       5       6       3
       7       7       5       6       6       1       2       3       9       9
       5       6       1       2       3       9       5       6       3       9
       9      10      11       1       2       3       9       5       6       3
       9      10      11       3       7       7       7       1       2       3
       9       5       6       3       7       7       7       1       2       3
       9       5       6       3       7       7       5       5      12       5
       1       2       5       5       8       5       8       5       8       5
       8       1       2       3       9       5       6       3       9      10
      11       3       7       7       7       1       2       3       9       5
       6       3       7       7       5       6       6       6      13      14
      15      15      15      15      15      16      15      15      15      15
      15      15      15      17      15      18      18      18      19      19
      19      19      19      19      19      20      19
%FLAG NUMBER_EXCLUDED_ATOMS
%FORMAT(10I8)
      12       6       5       4      12       7      14       4      10       4
       3       9       8       4       6       3       5       3       3       2
       1       1      14      15       8      12       4       9       5       4
       5       4       3       2       1       1      10       4      13       7
      11       4      10       5       4       8       5       4       7       4
       3       8       3       6       5       2       1       2       1       1
      10       4      13       7      11       4      13       5       4       9
       8       7       3       2       1       3       2       1       1      10
       4      13       7      11       4      10       5       4       9       5
       4       9       5       4       6       5       4       3       2       1
       1      10       4      13       7      11       4      13       5       4
       9       8       7       3       2       1       3       2       1       1
      10       4      13       7      11       4      10       5       4       9
       5       4       9       5       4       6       5       4       3       2
       1       1      10       4      11       7      11       4       5       3
       2       1       1      10       4      12       7      11       4       6
       4       3       2       1       1      10       4      10       7      11
       4       4       2       1       1      10       4      13       7      11
       4       9       5       4       5       4       3       2       1       1
      10       4      10       7      11       4       4       2       1       1
      10       4      16       7      11       4      13       8      10       6
       5       4       2       1       1       3       2       1       1      10
       4      10       7      11       4       4       2       1       1      10
       4      11       7      11       4       5       3       2       1       1
      10       4      13       7      11       4      10       5       4       8
       5       4       7       4       3       8       3       6       5       2
       1       2       1       1      10       4      13       7      11       4
      13       5       4       9       8       7       3       2       1       3
       2       1       1      10       4      12       7      11       4       6
       4       3       2       1       1       7       4       7       4       3
       7       3      10       4      11       7      11       4       5       3
       2       1       1      10       4      14       7      11       4       8
       6       5       1       3       2       1       1      10       4      10
       7      11       4       4       2       1       1      10       4      12
       7      11       4      10       4       3      10       7       4      10
       6       2       7       6       3       5       3       3       2       1
       1      10       4      14       7      11       4       8       6       5
       1       3       2       1       1      10       4      10       7       6
       2       6       4       3       2       1       1       1       7      10
      12       8       9      12      12       4      10       8       7       7
       5       4       5       3       3       2       1       1       1       1
       1       1       1       1       1       1       1
%FLAG NONBONDED_PARM_INDEX
%FORMAT(10I8)
       1       2       4       7      11      16      22      29      37      46
      56      67      79      92     106     121     137     154     172     191
       2       3       5       8      12      17      23      30      38      47
      57      68      80      93     107     122     138     155     173     192
       4       5       6       9      13      18      24      31      39      48
      58      69      81      94     108     123     139     156     174     193
       7       8       9      10      14      19      25      32      40      49
      59      70      82      95     109     124     140     157     175     194
      11      12      13      14      15      20      26      33      41      50
      60      71      83      96     110     125     141     158     176     195
      16      17      18      19      20      21      27      34      42      51
      61      72      84      97     111     126     142     159     177     196
      22      23      24      25      26      27      28      35      43      52
      62      73      85      98     112     127     143     160     178     197
      29      30      31      32      33      34      35      36      44      53
      63      74      86      99     113     128     144     161     179     198
      37      38      39      40      41      42      43      44      45      54
      64      75      87     100     114     129     145     162     180     199
      46      47      48      49      50      51      52      53      54      55
      65      76      88     101     115     130     146     163     181     200
      56      57      58      59      60      61      62      63      64      65
      66      77      89     102     116     131     147     164     182     201
      67      68      69      70      71      72      73      74      75      76
      77      78      90     103     117     132     148     165     183     202
      79      80      81      82      83      84      85      86      87      88
      89      90      91     104     118     133     149     166     184     203
      92      93      94      95      96      97      98      99     100     101
     102     103     104     105     119     134     150     167     185     204
     106     107     108     109     110     111     112     113     114     115
     116     117     118     119     120     135     151     168     186     205
     121     122     123     124     125     126     127     128     129     130
     131     132     133     134     135     136     152     169     187     206
     137     138     139     140     141     142     143     144     145     146
     147     148     149     150     151     152     153     170     188     207
     154     155     156     157     158     159     160     161     162     163
     164     165     166     167     168     169     170     171     189     208
     172     173     174     175     176     177     178     179     180     181
     182     183     184     185     186     187     188     189     190     209
     191     192     193     194     195     196     197     198     199     200
     201     202     203     204     205     206     207     208     209     210
%FLAG RESIDUE_LABEL
%FORMAT(20a4)
PHE PRO ARG LEU LYS LEU LYS SER ASP ALA GLU ALA ILE ALA SER ARG LEU ASP GLY SER 
THR ALA TRP THR ASP LIG 
%FLAG RESIDUE_POINTER
%FORMAT(10I8)
       1      23      37      61      80     102     121     143     154     166
     176     191     201     220     230     241     265     284     296     303
     314     328     338     362     376     389
%FLAG BOND_FORCE_CONSTANT
%FORMAT(5E16.8)
  3.17000000E+02  5.70000000E+02  3.10000000E+02  3.40000000E+02  3.67000000E+02
  3.17000000E+02  4.69000000E+02  3.67000000E+02  4.34000000E+02  4.90000000E+02
  3.37000000E+02  3.37000000E+02  4.81000000E+02  3.20000000E+02  5.53000000E+02
  6.56000000E+02  3.17000000E+02  5.46000000E+02  4.27000000E+02  4.47000000E+02
  4.69000000E+02  3.88000000E+02  4.28000000E+02  2.84800000E+02  3.57500000E+02
  3.78600000E+02  2.72700000E+02  6.52600000E+02  3.65600000E+02  3.75900000E+02
  3.95700000E+02  5.63500000E+02
%FLAG BOND_EQUIL_VALUE
%FORMAT(5E16.8)
  1.52200000E+00  1.22900000E+00  1.52600000E+00  1.09000000E+00  1.47100000E+00
  1.51000000E+00  1.40000000E+00  1.08000000E+00  1.01000000E+00  1.33500000E+00
  1.44900000E+00  1.46300000E+00  1.34000000E+00  1.41000000E+00  9.60000000E-01
  1.25000000E+00  1.49500000E+00  1.35200000E+00  1.38100000E+00  1.41900000E+00
  1.40400000E+00  1.45900000E+00  1.38000000E+00  1.43200000E+00  1.37000000E+00
  1.39800000E+00  1.49100000E+00  1.21800000E+00  1.36400000E+00  1.09700000E+00
  1.08600000E+00  9.73000000E-01
%FLAG ANGLE_FORCE_CONSTANT
%FORMAT(5E16.8)
  5.00000000E+01  8.00000000E+01  3.50000000E+01  8.00000000E+01  7.00000000E+01
  6.30000000E+01  6.30000000E+01  5.00000000E+01  8.00000000E+01  7.00000000E+01
  5.00000000E+01  6.30000000E+01  6.30000000E+01  8.00000000E+01  5.00000000E+01
  4.00000000E+01  5.00000000E+01  5.00000000E+01  5.00000000E+01  3.50000000E+01
  5.50000000E+01  7.00000000E+01  8.00000000E+01  6.30000000E+01  7.00000000E+01
  7.00000000E+01  7.00000000E+01  6.30000000E+01  6.30000000E+01  6.30000000E+01
  7.00000000E+01  7.00000000E+01  6.30000000E+01  7.00000000E+01  5.00000000E+01
  6.30000000E+01  6.61000000E+01  6.24000000E+01  8.73000000E+01  6.88000000E+01
  4.87000000E+01  6.64000000E+01  8.62000000E+01  6.50000000E+01  8.72000000E+01
  5.07000000E+01  3.88000000E+01
%FLAG ANGLE_EQUIL_VALUE
%FORMAT(5E16.8)
  1.91113553E+00  1.94080613E+00  1.91113553E+00  2.10137642E+00  2.03505391E+00
  1.98967535E+00  1.93906080E+00  2.12755636E+00  2.14500965E+00  2.09439510E+00
  2.09439510E+00  2.09439510E+00  1.92160751E+00  1.91462619E+00  2.05948852E+00
  1.91113553E+00  2.06018665E+00  2.06646983E+00  2.15024564E+00  2.09439510E+00
  1.89368224E+00  2.04203522E+00  2.19911486E+00  2.01760062E+00  2.18166156E+00
  2.24449342E+00  1.89717290E+00  1.89891823E+00  2.35444916E+00  1.85703032E+00
  1.94778745E+00  1.82212374E+00  2.14151899E+00  2.31779725E+00  2.14850031E+00
  2.02807259E+00  2.05879039E+00  1.91602245E+00  2.08043247E+00  2.09474417E+00
  2.09230071E+00  2.10015469E+00  2.13977366E+00  2.06140838E+00  2.09264977E+00
  1.89507850E+00  1.89298411E+00
%FLAG DIHEDRAL_FORCE_CONSTANT
%FORMAT(5E16.8)
  1.55555556E-01  1.92000000E-01  2.90000000E-01  1.20000000E-02  6.90000000E-02
  4.69000000E-01  5.50000000E-02  2.70000000E-01  1.80000000E+00  2.00000000E+00
  2.00000000E+00  2.00000000E-01  2.00000000E-01  3.62500000E+00  1.58000000E+00
  4.50000000E-01  1.80000000E-01  2.50000000E-01  2.00000000E-01  8.00000000E-02
  1.44000000E-01  2.59000000E-01  9.80000000E-02  1.42000000E-01  2.70000000E-02
  3.79000000E-01  6.20000000E-01  7.06000000E-01  4.01000000E-01  2.46000000E-01
  6.66000000E-01  2.67000000E-01  4.44000000E-01  2.11000000E-01  2.18000000E-01
  6.61000000E-01  5.80000000E-02  6.47000000E-01  2.15400000E+00  7.69000000E-01
  4.59000000E-01  4.24000000E-01  1.84000000E-01  1.00000000E-01  6.08000000E-01
  2.22000000E-01  1.36700000E+00  3.93000000E-01  4.21000000E-01  3.90000000E-01
  1.13000000E-01  1.44000000E-01  3.10000000E-01  1.48000000E-01  2.16000000E-01
  3.37000000E-01  1.07000000E-01  5.30000000E-02  4.47000000E-01  7.35000000E-01
  1.62000000E-01  2.89000000E-01  4.06000000E-01  7.70000000E-02  2.02000000E-01
  3.15000000E-01  6.00000000E-03  6.74000000E-01  2.36000000E-01  2.51000000E-01
  6.00000000E-03  1.19000000E-01  6.97000000E-01  7.90000000E-02  6.43000000E-01
  2.34000000E-01  3.13000000E-01  7.90000000E-02  8.19000000E-01  4.08000000E-01
  3.65000000E-01  3.53000000E-01  1.70000000E-02  6.52500000E+00  1.67500000E+00
  1.50000000E+00  3.00000000E+00  1.52500000E+00  1.00000000E+00  1.05000000E+01
  1.10000000E+00  1.55555556E-01  1.55555556E-01  7.00000000E-03  1.55555556E-01
  1.55555556E-01  1.55555556E-01  1.55555556E-01  1.55555556E-01  1.55555556E-01
  1.55555556E-01  1.55555556E-01  1.55555556E-01  2.50000000E+00  2.50000000E+00
  4.80000000E-02  4.80000000E-02  1.55555556E-01  1.55555556E-01  1.55555556E-01
  1.55555556E-01  1.55555556E-01  1.20000000E-02  4.20000000E-01  8.00000000E-01
  4.00000000E-01  2.50000000E+00  2.50000000E+00  4.00000000E-01  3.62500000E+00
  3.62500000E+00  3.62500000E+00  3.62500000E+00  3.62500000E+00  3.62500000E+00
  3.62500000E+00  3.62500000E+00  3.62500000E+00  3.62500000E+00  3.62500000E+00
  3.62500000E+00  3.62500000E+00  3.62500000E+00  3.62500000E+00  3.62500000E+00
  3.62500000E+00  3.62500000E+00  3.62500000E+00  3.62500000E+00  3.62500000E+00
  5.50000000E-01  1.55555556E-01  1.55555556E-01  1.55555556E-01  1.55555556E-01
  2.50000000E+00  2.50000000E+00  1.60000000E-01  1.60000000E-01  8.00000000E-01
  1.55555556E-01  1.55555556E-01  1.55555556E-01  1.55555556E-01  1.55555556E-01
  1.55555556E-01  4.20000000E-01  8.00000000E-01  2.50000000E+00  2.50000000E+00
  4.00000000E-01  1.55555556E-01  1.55555556E-01  1.50000000E-01  1.50000000E-01
  1.60000000E-01  1.50000000E-01  1.50000000E-01  1.60000000E-01  1.55555556E-01
  1.55555556E-01  1.55555556E-01  1.55555556E-01  5.50000000E-01  1.55555556E-01
  1.55555556E-01  1.55555556E-01  2.50000000E+00  2.50000000E+00  1.60000000E-01
  1.60000000E-01  1.80000000E-01  8.00000000E-01  1.55555556E-01  1.55555556E-01
  1.55555556E-01  1.55555556E-01  1.55555556E-01  1.55555556E-01  4.20000000E-01
  8.00000000E-01  2.50000000E+00  2.50000000E+00  4.00000000E-01  1.55555556E-01
  1.55555556E-01  1.55555556E-01  1.50000000E-01  1.50000000E-01  1.60000000E-01
  1.50000000E-01  1.50000000E-01  1.60000000E-01  1.55555556E-01  1.55555556E-01
  1.55555556E-01  1.55555556E-01  1.55555556E-01  1.55555556E-01  2.40000000E+00
  2.40000000E+00  2.40000000E+00  2.40000000E+00  2.40000000E+00  2.40000000E+00
  2.40000000E+00  2.40000000E+00  2.40000000E+00  2.40000000E+00  2.40000000E+00
  2.40000000E+00  5.50000000E-01  1.55555556E-01  1.55555556E-01  7.30000000E-02
  2.50000000E+00  2.50000000E+00  1.60000000E-01  1.79000000E-01  1.79000000E-01
  8.00000000E-01  1.55555556E-01  1.55555556E-01  1.55555556E-01  1.55555556E-01
  1.55555556E-01  1.90000000E-01  4.20000000E-01  8.00000000E-01  2.50000000E+00
  2.50000000E+00  4.00000000E-01  1.60000000E-01  1.60000000E-01  1.60000000E-01
  1.60000000E-01  1.60000000E-01  1.60000000E-01  1.50000000E-01  1.60000000E-01
  1.60000000E-01  1.50000000E-01  1.60000000E-01  1.60000000E-01  1.50000000E-01
  1.50000000E-01  1.50000000E-01  1.50000000E-01  1.50000000E-01  1.50000000E-01
  1.60000000E-01  1.60000000E-01  1.60000000E-01  1.60000000E-01  1.60000000E-01
  1.60000000E-01  5.50000000E-01  1.55555556E-01  1.55555556E-01  1.55555556E-01
  2.50000000E+00  2.50000000E+00  1.60000000E-01  1.60000000E-01  1.80000000E-01
  8.00000000E-01  1.55555556E-01  1.55555556E-01  1.55555556E-01  1.55555556E-01
  1.55555556E-01  1.55555556E-01  4.20000000E-01  8.00000000E-01  2.50000000E+00
  2.50000000E+00  4.00000000E-01  1.60000000E-01  1.60000000E-01  1.80000000E-01
  1.50000000E-01  1.50000000E-01  1.60000000E-01  1.50000000E-01  1.50000000E-01
  1.60000000E-01  1.55555556E-01  1.55555556E-01  1.55555556E-01  1.50000000E-01
  1.50000000E-01  1.60000000E-01  1.50000000E-01  1.50000000E-01  1.60000000E-01
  1.55555556E-01  1.55555556E-01  1.55555556E-01  1.55555556E-01  1.55555556E-01
  1.55555556E-01  1.55555556E-01  1.55555556E-01  1.55555556E-01  1.55555556E-01
  1.55555556E-01  1.55555556E-01  1.55555556E-01  1.55555556E-01  1.55555556E-01
  5.50000000E-01  1.55555556E-01  1.55555556E-01  7.30000000E-02  2.50000000E+00
  2.50000000E+00  1.60000000E-01  1.79000000E-01  1.79000000E-01  8.00000000E-01
  1.55555556E-01  1.55555556E-01  1.55555556E-01  1.55555556E-01  1.55555556E-01
  1.90000000E-01  4.20000000E-01  8.00000000E-01  2.50000000E+00  2.50000000E+00
  4.00000000E-01  1.60000000E-01  1.60000000E-01  1.60000000E-01  1.60000000E-01
  1.60000000E-01  1.60000000E-01  1.50000000E-01  1.60000000E-01  1.60000000E-01
  1.50000000E-01  1.60000000E-01  1.60000000E-01  1.50000000E-01  1.50000000E-01
  1.50000000E-01  1.50000000E-01  1.50000000E-01  1.50000000E-01  1.60000000E-01
  1.60000000E-01  1.60000000E-01  1.60000000E-01  1.60000000E-01  1.60000000E-01
  5.50000000E-01  1.55555556E-01  1.55555556E-01  1.55555556E-01  2.50000000E+00
  2.50000000E+00  1.60000000E-01  1.60000000E-01  1.80000000E-01  8.00000000E-01
  1.55555556E-01  1.55555556E-01  1.55555556E-01  1.55555556E-01  1.55555556E-01
  1.55555556E-01  4.20000000E-01  8.00000000E-01  2.50000000E+00  2.50000000E+00
  4.00000000E-01  1.60000000E-01  1.60000000E-01  1.80000000E-01  1.50000000E-01
  1.50000000E-01  1.60000000E-01  1.50000000E-01  1.50000000E-01  1.60000000E-01
  1.55555556E-01  1.55555556E-01  1.55555556E-01  1.50000000E-01  1.50000000E-01
  1.60000000E-01  1.50000000E-01  1.50000000E-01  1.60000000E-01  1.55555556E-01
  1.55555556E-01  1.55555556E-01  1.55555556E-01  1.55555556E-01  1.55555556E-01
  1.55555556E-01  1.55555556E-01  1.55555556E-01  1.55555556E-01  1.55555556E-01
  1.55555556E-01  1.55555556E-01  1.55555556E-01  1.55555556E-01  5.50000000E-01
  1.55555556E-01  1.55555556E-01  1.60000000E-01  2.50000000E+00  2.50000000E+00
  7.00000000E-03  8.00000000E-01  1.55555556E-01  1.55555556E-01  2.50000000E-01
  1.55555556E-01  1.55555556E-01  1.29000000E-01  4.20000000E-01  8.00000000E-01
  2.50000000E+00  2.50000000E+00  4.00000000E-01  1.66666667E-01  1.66666667E-01
  5.50000000E-01  1.55555556E-01  1.55555556E-01  8.90000000E-02  2.50000000E+00
  2.50000000E+00  3.10000000E-02  3.10000000E-02  8.00000000E-01  1.55555556E-01
  1.55555556E-01  1.55555556E-01  1.55555556E-01  1.55555556E-01  1.54000000E-01
  4.20000000E-01  8.00000000E-01  2.50000000E+00  2.50000000E+00  4.00000000E-01
  5.50000000E-01  1.55555556E-01  1.55555556E-01  1.55555556E-01  2.50000000E+00
  2.50000000E+00  8.00000000E-01  1.55555556E-01  1.55555556E-01  1.55555556E-01
  1.55555556E-01  1.55555556E-01  1.55555556E-01  4.20000000E-01  8.00000000E-01
  2.50000000E+00  2.50000000E+00  4.00000000E-01  5.50000000E-01  1.55555556E-01
  1.55555556E-01  7.80000000E-02  2.50000000E+00  2.50000000E+00  1.60000000E-01
  1.60000000E-01  5.60000000E-02  8.00000000E-01  1.55555556E-01  1.55555556E-01
  1.55555556E-01  1.55555556E-01  1.55555556E-01  1.45000000E-01  4.20000000E-01
  8.00000000E-01  2.50000000E+00  2.50000000E+00  4.00000000E-01  6.40000000E-02
  6.40000000E-02  1.50000000E-01  1.50000000E-01  1.55555556E-01  1.50000000E-01
  1.50000000E-01  1.55555556E-01  5.50000000E-01  1.55555556E-01  1.55555556E-01
  1.55555556E-01  2.50000000E+00  2.50000000E+00  8.00000000E-01  1.55555556E-01
  1.55555556E-01  1.55555556E-01  1.55555556E-01  1.55555556E-01  1.55555556E-01
  4.20000000E-01  8.00000000E-01  2.50000000E+00  2.50000000E+00  4.00000000E-01
  5.50000000E-01  1.55555556E-01  9.70000000E-02  1.00000000E-03  2.50000000E+00
  2.50000000E+00  1.60000000E-01  1.60000000E-01  2.30000000E-01  1.60000000E-01
  1.60000000E-01  1.60000000E-01  8.00000000E-01  1.55555556E-01  1.55555556E-01
  1.55555556E-01  1.55555556E-01  1.15000000E-01  1.12000000E-01  4.20000000E-01
  8.00000000E-01  2.50000000E+00  2.50000000E+00  4.00000000E-01  1.60000000E-01
  1.60000000E-01  1.60000000E-01  1.50000000E-01  1.50000000E-01  1.60000000E-01
  1.50000000E-01  1.50000000E-01  1.50000000E-01  1.60000000E-01  1.60000000E-01
  1.60000000E-01  1.60000000E-01  1.50000000E-01  1.50000000E-01  1.50000000E-01
  1.60000000E-01  1.50000000E-01  1.50000000E-01  1.50000000E-01  2.24000000E-01
  5.50000000E-01  1.55555556E-01  1.55555556E-01  1.55555556E-01  2.50000000E+00
  2.50000000E+00  8.00000000E-01  1.55555556E-01  1.55555556E-01  1.55555556E-01
  1.55555556E-01  1.55555556E-01  1.55555556E-01  4.20000000E-01  8.00000000E-01
  2.50000000E+00  2.50000000E+00  4.00000000E-01  5.50000000E-01  1.55555556E-01
  1.55555556E-01  1.60000000E-01  2.50000000E+00  2.50000000E+00  7.00000000E-03
  8.00000000E-01  1.55555556E-01  1.55555556E-01  2.50000000E-01  1.55555556E-01
  1.55555556E-01  1.29000000E-01  4.20000000E-01  8.00000000E-01  2.50000000E+00
  2.50000000E+00  4.00000000E-01  1.66666667E-01  1.66666667E-01  5.50000000E-01
  1.55555556E-01  1.55555556E-01  1.55555556E-01  2.50000000E+00  2.50000000E+00
  1.60000000E-01  1.60000000E-01  1.80000000E-01  8.00000000E-01  1.55555556E-01
  1.55555556E-01  1.55555556E-01  1.55555556E-01  1.55555556E-01  1.55555556E-01
  4.20000000E-01  8.00000000E-01  2.50000000E+00  2.50000000E+00  4.00000000E-01
  1.55555556E-01  1.55555556E-01  1.55555556E-01  1.50000000E-01  1.50000000E-01
  1.60000000E-01  1.50000000E-01  1.50000000E-01  1.60000000E-01  1.55555556E-01
  1.55555556E-01  1.55555556E-01  1.55555556E-01  1.55555556E-01  1.55555556E-01
  2.40000000E+00  2.40000000E+00  2.40000000E+00  2.40000000E+00  2.40000000E+00
  2.40000000E+00  2.40000000E+00  2.40000000E+00  2.40000000E+00  2.40000000E+00
  2.40000000E+00  2.40000000E+00  5.50000000E-01  1.55555556E-01  1.55555556E-01
  7.30000000E-02  2.50000000E+00  2.50000000E+00  1.60000000E-01  1.79000000E-01
  1.79000000E-01  8.00000000E-01  1.55555556E-01  1.55555556E-01  1.55555556E-01
  1.55555556E-01  1.55555556E-01  1.90000000E-01  4.20000000E-01  8.00000000E-01
  2.50000000E+00  2.50000000E+00  4.00000000E-01  1.60000000E-01  1.60000000E-01
  1.60000000E-01  1.60000000E-01  1.60000000E-01  1.60000000E-01  1.50000000E-01
  1.60000000E-01  1.60000000E-01  1.50000000E-01  1.60000000E-01  1.60000000E-01
  1.50000000E-01  1.50000000E-01  1.50000000E-01  1.50000000E-01  1.50000000E-01
  1.50000000E-01  1.60000000E-01  1.60000000E-01  1.60000000E-01  1.60000000E-01
  1.60000000E-01  1.60000000E-01  5.50000000E-01  1.55555556E-01  1.55555556E-01
  8.90000000E-02  2.50000000E+00  2.50000000E+00  3.10000000E-02  3.10000000E-02
  8.00000000E-01  1.55555556E-01  1.55555556E-01  1.55555556E-01  1.55555556E-01
  1.55555556E-01  1.54000000E-01  4.20000000E-01  2.50000000E+00  2.50000000E+00
  4.00000000E-01  5.50000000E-01  2.50000000E+00  2.50000000E+00  8.00000000E-01
  8.00000000E-01  4.20000000E-01  8.00000000E-01  2.50000000E+00  2.50000000E+00
  5.50000000E-01  1.55555556E-01  1.55555556E-01  1.60000000E-01  2.50000000E+00
  2.50000000E+00  7.00000000E-03  8.00000000E-01  1.55555556E-01  1.55555556E-01
  2.50000000E-01  1.55555556E-01  1.55555556E-01  1.29000000E-01  4.20000000E-01
  8.00000000E-01  2.50000000E+00  2.50000000E+00  4.00000000E-01  1.66666667E-01
  1.66666667E-01  5.50000000E-01  1.55555556E-01  9.50000000E-02  1.00000000E-03
  2.50000000E+00  2.50000000E+00  1.30000000E-02  1.60000000E-01  1.60000000E-01
  1.60000000E-01  8.00000000E-01  1.55555556E-01  2.50000000E-01  1.55555556E-01
  1.55555556E-01  1.56000000E-01  1.12000000E-01  4.20000000E-01  8.00000000E-01
  2.50000000E+00  2.50000000E+00  4.00000000E-01  1.66666667E-01  1.55555556E-01
  1.55555556E-01  1.55555556E-01  2.50000000E-01  2.50000000E-01  2.50000000E-01
  4.80000000E-02  5.50000000E-01  1.55555556E-01  1.55555556E-01  1.55555556E-01
  2.50000000E+00  2.50000000E+00  8.00000000E-01  1.55555556E-01  1.55555556E-01
  1.55555556E-01  1.55555556E-01  1.55555556E-01  1.55555556E-01  4.20000000E-01
  8.00000000E-01  2.50000000E+00  2.50000000E+00  4.00000000E-01  5.50000000E-01
  1.55555556E-01  1.55555556E-01  3.10000000E-02  2.50000000E+00  2.50000000E+00
  9.50000000E-02  8.00000000E-01  1.55555556E-01  1.55555556E-01  1.55555556E-01
  1.55555556E-01  1.55555556E-01  7.40000000E-02  4.20000000E-01  8.00000000E-01
  2.50000000E+00  2.50000000E+00  4.00000000E-01  6.52500000E+00  6.52500000E+00
  1.67500000E+00  1.67500000E+00  1.50000000E+00  3.00000000E+00  3.50000000E+00
  3.50000000E+00  1.67500000E+00  1.52500000E+00  6.52500000E+00  1.50000000E+00
  1.50000000E+00  1.52500000E+00  3.62500000E+00  3.62500000E+00  3.62500000E+00
  3.00000000E+00  3.62500000E+00  3.62500000E+00  1.52500000E+00  3.50000000E+00
  3.50000000E+00  3.62500000E+00  3.00000000E+00  3.62500000E+00  3.62500000E+00
  3.62500000E+00  3.62500000E+00  3.62500000E+00  3.62500000E+00  3.62500000E+00
  5.50000000E-01  1.55555556E-01  9.50000000E-02  1.00000000E-03  2.50000000E+00
  2.50000000E+00  1.30000000E-02  1.60000000E-01  1.60000000E-01  1.60000000E-01
  8.00000000E-01  1.55555556E-01  2.50000000E-01  1.55555556E-01  1.55555556E-01
  1.56000000E-01  1.12000000E-01  4.20000000E-01  8.00000000E-01  2.50000000E+00
  2.50000000E+00  4.00000000E-01  1.66666667E-01  1.55555556E-01  1.55555556E-01
  1.55555556E-01  2.50000000E-01  2.50000000E-01  2.50000000E-01  4.80000000E-02
  1.55555556E-01  1.55555556E-01  8.90000000E-02  3.10000000E-02  3.10000000E-02
  1.55555556E-01  1.55555556E-01  1.55555556E-01  1.55555556E-01  1.55555556E-01
  1.54000000E-01  1.61000000E+00  1.61000000E+00  3.62500000E+00  3.62500000E+00
  3.62500000E+00  3.62500000E+00  3.83333333E-01  3.83333333E-01  3.83333333E-01
  3.62500000E+00  3.62500000E+00  3.62500000E+00  3.62500000E+00  3.62500000E+00
  3.62500000E+00  3.62500000E+00  5.22000000E-01  1.00000000E+00  3.62500000E+00
  3.62500000E+00  1.00000000E+00  1.00000000E+00  8.35000000E-01  3.62500000E+00
  3.62500000E+00  3.62500000E+00  3.62500000E+00  3.62500000E+00  3.62500000E+00
  3.62500000E+00  3.62500000E+00  5.22000000E-01  5.22000000E-01  5.22000000E-01
  1.00000000E+00  3.62500000E+00  3.62500000E+00  3.62500000E+00  3.62500000E+00
  3.62500000E+00  3.62500000E+00  3.62500000E+00  3.62500000E+00  3.62500000E+00
  3.62500000E+00  3.62500000E+00  3.62500000E+00  3.62500000E+00  3.62500000E+00
  3.62500000E+00  3.62500000E+00  8.35000000E-01  3.62500000E+00  3.62500000E+00
  3.62500000E+00  3.62500000E+00  3.62500000E+00  0.00000000E+00  0.00000000E+00
  0.00000000E+00  0.00000000E+00  0.00000000E+00  0.00000000E+00  0.00000000E+00
  0.00000000E+00  0.00000000E+00  0.00000000E+00  0.00000000E+00  0.00000000E+00
  0.00000000E+00  0.00000000E+00  0.00000000E+00  0.00000000E+00  0.00000000E+00
  0.00000000E+00  0.00000000E+00  0.00000000E+00  0.00000000E+00  0.00000000E+00
  0.00000000E+00  0.00000000E+00  0.00000000E+00  0.00000000E+00  0.00000000E+00
  0.00000000E+00  0.00000000E+00  0.00000000E+00  0.00000000E+00  0.00000000E+00
  0.00000000E+00  0.00000000E+00  0.00000000E+00  0.00000000E+00  0.00000000E+00
  0.00000000E+00  0.00000000E+00  0.00000000E+00  0.00000000E+00  0.00000000E+00
  0.00000000E+00  0.00000000E+00  0.00000000E+00  0.00000000E+00  0.00000000E+00
  0.00000000E+00  0.00000000E+00  0.00000000E+00  0.00000000E+00  0.00000000E+00
  0.00000000E+00  0.00000000E+00  0.00000000E+00  0.00000000E+00  0.00000000E+00
  0.00000000E+00  0.00000000E+00  0.00000000E+00  0.00000000E+00  0.00000000E+00
  0.00000000E+00  0.00000000E+00  0.00000000E+00  0.00000000E+00  0.00000000E+00
  0.00000000E+00  0.00000000E+00  0.00000000E+00  0.00000000E+00  0.00000000E+00
  0.00000000E+00  0.00000000E+00  0.00000000E+00  0.00000000E+00  0.00000000E+00
  0.00000000E+00  0.00000000E+00  0.00000000E+00  0.00000000E+00  0.00000000E+00
  0.00000000E+00  0.00000000E+00  0.00000000E+00  0.00000000E+00  0.00000000E+00
  0.00000000E+00  0.00000000E+00  0.00000000E+00  0.00000000E+00  0.00000000E+00
  0.00000000E+00  0.00000000E+00  0.00000000E+00  0.00000000E+00  0.00000000E+00
  0.00000000E+00  0.00000000E+00  0.00000000E+00  0.00000000E+00  0.00000000E+00
  0.00000000E+00  0.00000000E+00  0.00000000E+00  0.00000000E+00  0.00000000E+00
  0.00000000E+00  0.00000000E+00  0.00000000E+00  0.00000000E+00  0.00000000E+00
  0.00000000E+00  0.00000000E+00  0.00000000E+00  0.00000000E+00  0.00000000E+00
  0.00000000E+00  0.00000000E+00  0.00000000E+00  0.00000000E+00  0.00000000E+00
  0.00000000E+00  0.00000000E+00  0.00000000E+00  0.00000000E+00  0.00000000E+00
  0.00000000E+00  0.00000000E+00  0.00000000E+00  0.00000000E+00  0.00000000E+00
  0.00000000E+00  0.00000000E+00  0.00000000E+00  0.00000000E+00  0.00000000E+00
  0.00000000E+00  0.00000000E+00  0.00000000E+00  0.00000000E+00  0.00000000E+00
  0.00000000E+00  0.00000000E+00  0.00000000E+00  0.00000000E+00  0.00000000E+00
  0.00000000E+00  0.00000000E+00  0.00000000E+00  0.00000000E+00  0.00000000E+00
  0.00000000E+00  0.00000000E+00  0.00000000E+00  0.00000000E+00  0.00000000E+00
  0.00000000E+00  0.00000000E+00  0.00000000E+00  0.00000000E+00  0.00000000E+00
  0.00000000E+00  0.00000000E+00  0.00000000E+00  0.00000000E+00  0.00000000E+00
  0.00000000E+00  0.00000000E+00  0.00000000E+00  0.00000000E+00  0.00000000E+00
  0.00000000E+00  0.00000000E+00  0.00000000E+00  0.00000000E+00  0.00000000E+00
  0.00000000E+00  0.00000000E+00  0.00000000E+00  0.00000000E+00  0.00000000E+00
  0.00000000E+00  0.00000000E+00  0.00000000E+00  0.00000000E+00  0.00000000E+00
  0.00000000E+00  0.00000000E+00  0.00000000E+00  0.00000000E+00  0.00000000E+00
  0.00000000E+00  0.00000000E+00  0.00000000E+00  0.00000000E+00  0.00000000E+00
  0.00000000E+00  0.00000000E+00  0.00000000E+00  0.00000000E+00  0.00000000E+00
  0.00000000E+00  0.00000000E+00  0.00000000E+00  0.00000000E+00  0.00000000E+00
  0.00000000E+00  0.00000000E+00  0.00000000E+00  0.00000000E+00  0.00000000E+00
  0.00000000E+00  0.00000000E+00  0.00000000E+00  0.00000000E+00  0.00000000E+00
%FLAG DIHEDRAL_PERIODICITY
%FORMAT(5E16.8)
  3.00000000E+00  3.00000000E+00  2.00000000E+00  1.00000000E+00  2.00000000E+00
  2.00000000E+00  1.00000000E+00  2.00000000E+00  2.00000000E+00  1.00000000E+00
  2.00000000E+00  2.00000000E+00  1.00000000E+00  2.00000000E+00  2.00000000E+00
  1.00000000E+00  3.00000000E+00  2.00000000E+00  1.00000000E+00  3.00000000E+00
  3.00000000E+00  2.00000000E+00  1.00000000E+00  3.00000000E+00  2.00000000E+00
  1.00000000E+00  2.00000000E+00  1.00000000E+00  3.00000000E+00  2.00000000E+00
  1.00000000E+00  3.00000000E+00  2.00000000E+00  1.00000000E+00  2.00000000E+00
  1.00000000E+00  3.00000000E+00  2.00000000E+00  1.00000000E+00  2.00000000E+00
  2.00000000E+00  1.00000000E+00  2.00000000E+00  1.00000000E+00  3.00000000E+00
  2.00000000E+00  1.00000000E+00  2.00000000E+00  1.00000000E+00  2.00000000E+00
  3.00000000E+00  2.00000000E+00  1.00000000E+00  3.00000000E+00  2.00000000E+00
  1.00000000E+00  3.00000000E+00  2.00000000E+00  1.00000000E+00  2.00000000E+00
  1.00000000E+00  2.00000000E+00  1.00000000E+00  2.00000000E+00  1.00000000E+00
  3.00000000E+00  2.00000000E+00  1.00000000E+00  3.00000000E+00  2.00000000E+00
  1.00000000E+00  2.00000000E+00  1.00000000E+00  2.00000000E+00  1.00000000E+00
  3.00000000E+00  2.00000000E+00  1.00000000E+00  3.00000000E+00  2.00000000E+00
  1.00000000E+00  2.00000000E+00  1.00000000E+00  2.00000000E+00  2.00000000E+00
  2.00000000E+00  2.00000000E+00  2.00000000E+00  2.00000000E+00  2.00000000E+00
  2.00000000E+00  3.00000000E+00  3.00000000E+00  4.00000000E+00  3.00000000E+00
  3.00000000E+00  3.00000000E+00  3.00000000E+00  3.00000000E+00  3.00000000E+00
  3.00000000E+00  3.00000000E+00  3.00000000E+00  2.00000000E+00  2.00000000E+00
  4.00000000E+00  4.00000000E+00  3.00000000E+00  3.00000000E+00  3.00000000E+00
  3.00000000E+00  3.00000000E+00  4.00000000E+00  3.00000000E+00  3.00000000E+00
  3.00000000E+00  2.00000000E+00  2.00000000E+00  3.00000000E+00  2.00000000E+00
  2.00000000E+00  2.00000000E+00  2.00000000E+00  2.00000000E+00  2.00000000E+00
  2.00000000E+00  2.00000000E+00  2.00000000E+00  2.00000000E+00  2.00000000E+00
  2.00000000E+00  2.00000000E+00  2.00000000E+00  2.00000000E+00  2.00000000E+00
  2.00000000E+00  2.00000000E+00  2.00000000E+00  2.00000000E+00  2.00000000E+00
  3.00000000E+00  3.00000000E+00  3.00000000E+00  3.00000000E+00  3.00000000E+00
  2.00000000E+00  2.00000000E+00  3.00000000E+00  3.00000000E+00  1.00000000E+00
  3.00000000E+00  3.00000000E+00  3.00000000E+00  3.00000000E+00  3.00000000E+00
  3.00000000E+00  3.00000000E+00  3.00000000E+00  2.00000000E+00  2.00000000E+00
  3.00000000E+00  3.00000000E+00  3.00000000E+00  3.00000000E+00  3.00000000E+00
  3.00000000E+00  3.00000000E+00  3.00000000E+00  3.00000000E+00  3.00000000E+00
  3.00000000E+00  3.00000000E+00  3.00000000E+00  3.00000000E+00  3.00000000E+00
  3.00000000E+00  3.00000000E+00  2.00000000E+00  2.00000000E+00  3.00000000E+00
  3.00000000E+00  3.00000000E+00  1.00000000E+00  3.00000000E+00  3.00000000E+00
  3.00000000E+00  3.00000000E+00  3.00000000E+00  3.00000000E+00  3.00000000E+00
  3.00000000E+00  2.00000000E+00  2.00000000E+00  3.00000000E+00  3.00000000E+00
  3.00000000E+00  3.00000000E+00  3.00000000E+00  3.00000000E+00  3.00000000E+00
  3.00000000E+00  3.00000000E+00  3.00000000E+00  3.00000000E+00  3.00000000E+00
  3.00000000E+00  3.00000000E+00  3.00000000E+00  3.00000000E+00  2.00000000E+00
  2.00000000E+00  2.00000000E+00  2.00000000E+00  2.00000000E+00  2.00000000E+00
  2.00000000E+00  2.00000000E+00  2.00000000E+00  2.00000000E+00  2.00000000E+00
  2.00000000E+00  3.00000000E+00  3.00000000E+00  3.00000000E+00  4.00000000E+00
  2.00000000E+00  2.00000000E+00  3.00000000E+00  4.00000000E+00  4.00000000E+00
  1.00000000E+00  3.00000000E+00  3.00000000E+00  3.00000000E+00  3.00000000E+00
  3.00000000E+00  4.00000000E+00  3.00000000E+00  3.00000000E+00  2.00000000E+00
  2.00000000E+00  3.00000000E+00  3.00000000E+00  3.00000000E+00  3.00000000E+00
  3.00000000E+00  3.00000000E+00  3.00000000E+00  3.00000000E+00  3.00000000E+00
  3.00000000E+00  3.00000000E+00  3.00000000E+00  3.00000000E+00  3.00000000E+00
  3.00000000E+00  3.00000000E+00  3.00000000E+00  3.00000000E+00  3.00000000E+00
  3.00000000E+00  3.00000000E+00  3.00000000E+00  3.00000000E+00  3.00000000E+00
  3.00000000E+00  3.00000000E+00  3.00000000E+00  3.00000000E+00  3.00000000E+00
  2.00000000E+00  2.00000000E+00  3.00000000E+00  3.00000000E+00  3.00000000E+00
  1.00000000E+00  3.00000000E+00  3.00000000E+00  3.00000000E+00  3.00000000E+00
  3.00000000E+00  3.00000000E+00  3.00000000E+00  3.00000000E+00  2.00000000E+00
  2.00000000E+00  3.00000000E+00  3.00000000E+00  3.00000000E+00  3.00000000E+00
  3.00000000E+00  3.00000000E+00  3.00000000E+00  3.00000000E+00  3.00000000E+00
  3.00000000E+00  3.00000000E+00  3.00000000E+00  3.00000000E+00  3.00000000E+00
  3.00000000E+00  3.00000000E+00  3.00000000E+00  3.00000000E+00  3.00000000E+00
  3.00000000E+00  3.00000000E+00  3.00000000E+00  3.00000000E+00  3.00000000E+00
  3.00000000E+00  3.00000000E+00  3.00000000E+00  3.00000000E+00  3.00000000E+00
  3.00000000E+00  3.00000000E+00  3.00000000E+00  3.00000000E+00  3.00000000E+00
  3.00000000E+00  3.00000000E+00  3.00000000E+00  4.00000000E+00  2.00000000E+00
  2.00000000E+00  3.00000000E+00  4.00000000E+00  4.00000000E+00  1.00000000E+00
  3.00000000E+00  3.00000000E+00  3.00000000E+00  3.00000000E+00  3.00000000E+00
  4.00000000E+00  3.00000000E+00  3.00000000E+00  2.00000000E+00  2.00000000E+00
  3.00000000E+00  3.00000000E+00  3.00000000E+00  3.00000000E+00  3.00000000E+00
  3.00000000E+00  3.00000000E+00  3.00000000E+00  3.00000000E+00  3.00000000E+00
  3.00000000E+00  3.00000000E+00  3.00000000E+00  3.00000000E+00  3.00000000E+00
  3.00000000E+00  3.00000000E+00  3.00000000E+00  3.00000000E+00  3.00000000E+00
  3.00000000E+00  3.00000000E+00  3.00000000E+00  3.00000000E+00  3.00000000E+00
  3.00000000E+00  3.00000000E+00  3.00000000E+00  3.00000000E+00  2.00000000E+00
  2.00000000E+00  3.00000000E+00  3.00000000E+00  3.00000000E+00  1.00000000E+00
  3.00000000E+00  3.00000000E+00  3.00000000E+00  3.00000000E+00  3.00000000E+00
  3.00000000E+00  3.00000000E+00  3.00000000E+00  2.00000000E+00  2.00000000E+00
  3.00000000E+00  3.00000000E+00  3.00000000E+00  3.00000000E+00  3.00000000E+00
  3.00000000E+00  3.00000000E+00  3.00000000E+00  3.00000000E+00  3.00000000E+00
  3.00000000E+00  3.00000000E+00  3.00000000E+00  3.00000000E+00  3.00000000E+00
  3.00000000E+00  3.00000000E+00  3.00000000E+00  3.00000000E+00  3.00000000E+00
  3.00000000E+00  3.00000000E+00  3.00000000E+00  3.00000000E+00  3.00000000E+00
  3.00000000E+00  3.00000000E+00  3.00000000E+00  3.00000000E+00  3.00000000E+00
  3.00000000E+00  3.00000000E+00  3.00000000E+00  3.00000000E+00  3.00000000E+00
  3.00000000E+00  3.00000000E+00  4.00000000E+00  2.00000000E+00  2.00000000E+00
  4.00000000E+00  1.00000000E+00  3.00000000E+00  3.00000000E+00  1.00000000E+00
  3.00000000E+00  3.00000000E+00  4.00000000E+00  3.00000000E+00  3.00000000E+00
  2.00000000E+00  2.00000000E+00  3.00000000E+00  3.00000000E+00  3.00000000E+00
  3.00000000E+00  3.00000000E+00  3.00000000E+00  4.00000000E+00  2.00000000E+00
  2.00000000E+00  4.00000000E+00  4.00000000E+00  1.00000000E+00  3.00000000E+00
  3.00000000E+00  3.00000000E+00  3.00000000E+00  3.00000000E+00  4.00000000E+00
  3.00000000E+00  3.00000000E+00  2.00000000E+00  2.00000000E+00  3.00000000E+00
  3.00000000E+00  3.00000000E+00  3.00000000E+00  3.00000000E+00  2.00000000E+00
  2.00000000E+00  1.00000000E+00  3.00000000E+00  3.00000000E+00  3.00000000E+00
  3.00000000E+00  3.00000000E+00  3.00000000E+00  3.00000000E+00  3.00000000E+00
  2.00000000E+00  2.00000000E+00  3.00000000E+00  3.00000000E+00  3.00000000E+00
  3.00000000E+00  4.00000000E+00  2.00000000E+00  2.00000000E+00  3.00000000E+00
  3.00000000E+00  4.00000000E+00  1.00000000E+00  3.00000000E+00  3.00000000E+00
  3.00000000E+00  3.00000000E+00  3.00000000E+00  4.00000000E+00  3.00000000E+00
  3.00000000E+00  2.00000000E+00  2.00000000E+00  3.00000000E+00  4.00000000E+00
  4.00000000E+00  3.00000000E+00  3.00000000E+00  3.00000000E+00  3.00000000E+00
  3.00000000E+00  3.00000000E+00  3.00000000E+00  3.00000000E+00  3.00000000E+00
  3.00000000E+00  2.00000000E+00  2.00000000E+00  1.00000000E+00  3.00000000E+00
  3.00000000E+00  3.00000000E+00  3.00000000E+00  3.00000000E+00  3.00000000E+00
  3.00000000E+00  3.00000000E+00  2.00000000E+00  2.00000000E+00  3.00000000E+00
  3.00000000E+00  3.00000000E+00  4.00000000E+00  4.00000000E+00  2.00000000E+00
  2.00000000E+00  3.00000000E+00  3.00000000E+00  4.00000000E+00  3.00000000E+00
  3.00000000E+00  3.00000000E+00  1.00000000E+00  3.00000000E+00  3.00000000E+00
  3.00000000E+00  3.00000000E+00  4.00000000E+00  4.00000000E+00  3.00000000E+00
  3.00000000E+00  2.00000000E+00  2.00000000E+00  3.00000000E+00  3.00000000E+00
  3.00000000E+00  3.00000000E+00  3.00000000E+00  3.00000000E+00  3.00000000E+00
  3.00000000E+00  3.00000000E+00  3.00000000E+00  3.00000000E+00  3.00000000E+00
  3.00000000E+00  3.00000000E+00  3.00000000E+00  3.00000000E+00  3.00000000E+00
  3.00000000E+00  3.00000000E+00  3.00000000E+00  3.00000000E+00  4.00000000E+00
  3.00000000E+00  3.00000000E+00  3.00000000E+00  3.00000000E+00  2.00000000E+00
  2.00000000E+00  1.00000000E+00  3.00000000E+00  3.00000000E+00  3.00000000E+00
  3.00000000E+00  3.00000000E+00  3.00000000E+00  3.00000000E+00  3.00000000E+00
  2.00000000E+00  2.00000000E+00  3.00000000E+00  3.00000000E+00  3.00000000E+00
  3.00000000E+00  4.00000000E+00  2.00000000E+00  2.00000000E+00  4.00000000E+00
  1.00000000E+00  3.00000000E+00  3.00000000E+00  1.00000000E+00  3.00000000E+00
  3.00000000E+00  4.00000000E+00  3.00000000E+00  3.00000000E+00  2.00000000E+00
  2.00000000E+00  3.00000000E+00  3.00000000E+00  3.00000000E+00  3.00000000E+00
  3.00000000E+00  3.00000000E+00  3.00000000E+00  2.00000000E+00  2.00000000E+00
  3.00000000E+00  3.00000000E+00  3.00000000E+00  1.00000000E+00  3.00000000E+00
  3.00000000E+00  3.00000000E+00  3.00000000E+00  3.00000000E+00  3.00000000E+00
  3.00000000E+00  3.00000000E+00  2.00000000E+00  2.00000000E+00  3.00000000E+00
  3.00000000E+00  3.00000000E+00  3.00000000E+00  3.00000000E+00  3.00000000E+00
  3.00000000E+00  3.00000000E+00  3.00000000E+00  3.00000000E+00  3.00000000E+00
  3.00000000E+00  3.00000000E+00  3.00000000E+00  3.00000000E+00  3.00000000E+00
  2.00000000E+00  2.00000000E+00  2.00000000E+00  2.00000000E+00  2.00000000E+00
  2.00000000E+00  2.00000000E+00  2.00000000E+00  2.00000000E+00  2.00000000E+00
  2.00000000E+00  2.00000000E+00  3.00000000E+00  3.00000000E+00  3.00000000E+00
  4.00000000E+00  2.00000000E+00  2.00000000E+00  3.00000000E+00  4.00000000E+00
  4.00000000E+00  1.00000000E+00  3.00000000E+00  3.00000000E+00  3.00000000E+00
  3.00000000E+00  3.00000000E+00  4.00000000E+00  3.00000000E+00  3.00000000E+00
  2.00000000E+00  2.00000000E+00  3.00000000E+00  3.00000000E+00  3.00000000E+00
  3.00000000E+00  3.00000000E+00  3.00000000E+00  3.00000000E+00  3.00000000E+00
  3.00000000E+00  3.00000000E+00  3.00000000E+00  3.00000000E+00  3.00000000E+00
  3.00000000E+00  3.00000000E+00  3.00000000E+00  3.00000000E+00  3.00000000E+00
  3.00000000E+00  3.00000000E+00  3.00000000E+00  3.00000000E+00  3.00000000E+00
  3.00000000E+00  3.00000000E+00  3.00000000E+00  3.00000000E+00  3.00000000E+00
  4.00000000E+00  2.00000000E+00  2.00000000E+00  4.00000000E+00  4.00000000E+00
  1.00000000E+00  3.00000000E+00  3.00000000E+00  3.00000000E+00  3.00000000E+00
  3.00000000E+00  4.00000000E+00  3.00000000E+00  2.00000000E+00  2.00000000E+00
  3.00000000E+00  3.00000000E+00  2.00000000E+00  2.00000000E+00  1.00000000E+00
  1.00000000E+00  3.00000000E+00  3.00000000E+00  2.00000000E+00  2.00000000E+00
  3.00000000E+00  3.00000000E+00  3.00000000E+00  4.00000000E+00  2.00000000E+00
  2.00000000E+00  4.00000000E+00  1.00000000E+00  3.00000000E+00  3.00000000E+00
  1.00000000E+00  3.00000000E+00  3.00000000E+00  4.00000000E+00  3.00000000E+00
  3.00000000E+00  2.00000000E+00  2.00000000E+00  3.00000000E+00  3.00000000E+00
  3.00000000E+00  3.00000000E+00  3.00000000E+00  4.00000000E+00  4.00000000E+00
  2.00000000E+00  2.00000000E+00  4.00000000E+00  3.00000000E+00  3.00000000E+00
  3.00000000E+00  1.00000000E+00  3.00000000E+00  1.00000000E+00  3.00000000E+00
  3.00000000E+00  4.00000000E+00  4.00000000E+00  3.00000000E+00  3.00000000E+00
  2.00000000E+00  2.00000000E+00  3.00000000E+00  3.00000000E+00  3.00000000E+00
  3.00000000E+00  3.00000000E+00  1.00000000E+00  1.00000000E+00  1.00000000E+00
  4.00000000E+00  3.00000000E+00  3.00000000E+00  3.00000000E+00  3.00000000E+00
  2.00000000E+00  2.00000000E+00  1.00000000E+00  3.00000000E+00  3.00000000E+00
  3.00000000E+00  3.00000000E+00  3.00000000E+00  3.00000000E+00  3.00000000E+00
  3.00000000E+00  2.00000000E+00  2.00000000E+00  3.00000000E+00  3.00000000E+00
  3.00000000E+00  3.00000000E+00  4.00000000E+00  2.00000000E+00  2.00000000E+00
  4.00000000E+00  1.00000000E+00  3.00000000E+00  3.00000000E+00  3.00000000E+00
  3.00000000E+00  3.00000000E+00  4.00000000E+00  3.00000000E+00  3.00000000E+00
  2.00000000E+00  2.00000000E+00  3.00000000E+00  2.00000000E+00  2.00000000E+00
  2.00000000E+00  2.00000000E+00  2.00000000E+00  2.00000000E+00  2.00000000E+00
  2.00000000E+00  2.00000000E+00  2.00000000E+00  2.00000000E+00  2.00000000E+00
  2.00000000E+00  2.00000000E+00  2.00000000E+00  2.00000000E+00  2.00000000E+00
  2.00000000E+00  2.00000000E+00  2.00000000E+00  2.00000000E+00  2.00000000E+00
  2.00000000E+00  2.00000000E+00  2.00000000E+00  2.00000000E+00  2.00000000E+00
  2.00000000E+00  2.00000000E+00  2.00000000E+00  2.00000000E+00  2.00000000E+00
  3.00000000E+00  3.00000000E+00  4.00000000E+00  4.00000000E+00  2.00000000E+00
  2.00000000E+00  4.00000000E+00  3.00000000E+00  3.00000000E+00  3.00000000E+00
  1.00000000E+00  3.00000000E+00  1.00000000E+00  3.00000000E+00  3.00000000E+00
  4.00000000E+00  4.00000000E+00  3.00000000E+00  3.00000000E+00  2.00000000E+00
  2.00000000E+00  3.00000000E+00  3.00000000E+00  3.00000000E+00  3.00000000E+00
  3.00000000E+00  1.00000000E+00  1.00000000E+00  1.00000000E+00  4.00000000E+00
  3.00000000E+00  3.00000000E+00  4.00000000E+00  4.00000000E+00  4.00000000E+00
  3.00000000E+00  3.00000000E+00  3.00000000E+00  3.00000000E+00  3.00000000E+00
  4.00000000E+00  2.00000000E+00  2.00000000E+00  2.00000000E+00  2.00000000E+00
  2.00000000E+00  2.00000000E+00  3.00000000E+00  3.00000000E+00  3.00000000E+00
  2.00000000E+00  2.00000000E+00  2.00000000E+00  2.00000000E+00  2.00000000E+00
  2.00000000E+00  2.00000000E+00  2.00000000E+00  2.00000000E+00  2.00000000E+00
  2.00000000E+00  2.00000000E+00  2.00000000E+00  2.00000000E+00  2.00000000E+00
  2.00000000E+00  2.00000000E+00  2.00000000E+00  2.00000000E+00  2.00000000E+00
  2.00000000E+00  2.00000000E+00  2.00000000E+00  2.00000000E+00  2.00000000E+00
  2.00000000E+00  2.00000000E+00  2.00000000E+00  2.00000000E+00  2.00000000E+00
  2.00000000E+00  2.00000000E+00  2.00000000E+00  2.00000000E+00  2.00000000E+00
  2.00000000E+00  2.00000000E+00  2.00000000E+00  2.00000000E+00  2.00000000E+00
  2.00000000E+00  2.00000000E+00  2.00000000E+00  2.00000000E+00  2.00000000E+00
  2.00000000E+00  2.00000000E+00  2.00000000E+00  1.00000000E+00  1.00000000E+00
  1.00000000E+00  1.00000000E+00  1.00000000E+00  1.00000000E+00  1.00000000E+00
  1.00000000E+00  1.00000000E+00  1.00000000E+00  1.00000000E+00  1.00000000E+00
  1.00000000E+00  1.00000000E+00  1.00000000E+00  1.00000000E+00  1.00000000E+00
  1.00000000E+00  1.00000000E+00  1.00000000E+00  1.00000000E+00  1.00000000E+00
  1.00000000E+00  1.00000000E+00  1.00000000E+00  1.00000000E+00  1.00000000E+00
  1.00000000E+00  1.00000000E+00  1.00000000E+00  1.00000000E+00  1.00000000E+00
  1.00000000E+00  1.00000000E+00  1.00000000E+00  1.00000000E+00  1.00000000E+00
  1.00000000E+00  1.00000000E+00  1.00000000E+00  1.00000000E+00  1.00000000E+00
  1.00000000E+00  1.00000000E+00  1.00000000E+00  1.00000000E+00  1.00000000E+00
  1.00000000E+00  1.00000000E+00  1.00000000E+00  1.00000000E+00  1.00000000E+00
  1.00000000E+00  1.00000000E+00  1.00000000E+00  1.00000000E+00  1.00000000E+00
  1.00000000E+00  1.00000000E+00  1.00000000E+00  1.00000000E+00  1.00000000E+00
  1.00000000E+00  1.00000000E+00  1.00000000E+00  1.00000000E+00  1.00000000E+00
  1.00000000E+00  1.00000000E+00  1.00000000E+00  1.00000000E+00  1.00000000E+00
  1.00000000E+00  1.00000000E+00  1.00000000E+00  1.00000000E+00  1.00000000E+00
  1.00000000E+00  1.00000000E+00  1.00000000E+00  1.00000000E+00  1.00000000E+00
  1.00000000E+00  1.00000000E+00  1.00000000E+00  1.00000000E+00  1.00000000E+00
  1.00000000E+00  1.00000000E+00  1.00000000E+00  1.00000000E+00  1.00000000E+00
  1.00000000E+00  1.00000000E+00  1.00000000E+00  1.00000000E+00  1.00000000E+00
  1.00000000E+00  1.00000000E+00  1.00000000E+00  1.00000000E+00  1.00000000E+00
  1.00000000E+00  1.00000000E+00  1.00000000E+00  1.00000000E+00  1.00000000E+00
  1.00000000E+00  1.00000000E+00  1.00000000E+00  1.00000000E+00  1.00000000E+00
  1.00000000E+00  1.00000000E+00  1.00000000E+00  1.00000000E+00  1.00000000E+00
  1.00000000E+00  1.00000000E+00  1.00000000E+00  1.00000000E+00  1.00000000E+00
  1.00000000E+00  1.00000000E+00  1.00000000E+00  1.00000000E+00  1.00000000E+00
  1.00000000E+00  1.00000000E+00  1.00000000E+00  1.00000000E+00  1.00000000E+00
  1.00000000E+00  1.00000000E+00  1.00000000E+00  1.00000000E+00  1.00000000E+00
  1.00000000E+00  1.00000000E+00  1.00000000E+00  1.00000000E+00  1.00000000E+00
  1.00000000E+00  1.00000000E+00  1.00000000E+00  1.00000000E+00  1.00000000E+00
  1.00000000E+00  1.00000000E+00  1.00000000E+00  1.00000000E+00  1.00000000E+00
  1.00000000E+00  1.00000000E+00  1.00000000E+00  1.00000000E+00  1.00000000E+00
  1.00000000E+00  1.00000000E+00  1.00000000E+00  1.00000000E+00  1.00000000E+00
  1.00000000E+00  1.00000000E+00  1.00000000E+00  1.00000000E+00  1.00000000E+00
  1.00000000E+00  1.00000000E+00  1.00000000E+00  1.00000000E+00  1.00000000E+00
  1.00000000E+00  1.00000000E+00  1.00000000E+00  1.00000000E+00  1.00000000E+00
  1.00000000E+00  1.00000000E+00  1.00000000E+00  1.00000000E+00  1.00000000E+00
  1.00000000E+00  1.00000000E+00  1.00000000E+00  1.00000000E+00  1.00000000E+00
  1.00000000E+00  1.00000000E+00  1.00000000E+00  1.00000000E+00  1.00000000E+00
  1.00000000E+00  1.00000000E+00  1.00000000E+00  1.00000000E+00  1.00000000E+00
  1.00000000E+00  1.00000000E+00  1.00000000E+00  1.00000000E+00  1.00000000E+00
  1.00000000E+00  1.00000000E+00  1.00000000E+00  1.00000000E+00  1.00000000E+00
  1.00000000E+00  1.00000000E+00  1.00000000E+00  1.00000000E+00  1.00000000E+00
  1.00000000E+00  1.00000000E+00  1.00000000E+00  1.00000000E+00  1.00000000E+00
%FLAG DIHEDRAL_PHASE
%FORMAT(5E16.8)
  0.00000000E+00  0.00000000E+00  3.14159265E+00  3.14159265E+00  3.14159265E+00
  3.14159265E+00  0.00000000E+00  0.00000000E+00  0.00000000E+00  0.00000000E+00
  0.00000000E+00  0.00000000E+00  0.00000000E+00  3.14159265E+00  3.14159265E+00
  3.14159265E+00  0.00000000E+00  3.14159265E+00  3.14159265E+00  3.14159265E+00
  0.00000000E+00  3.14159265E+00  0.00000000E+00  0.00000000E+00  3.14159265E+00
  0.00000000E+00  3.14159265E+00  0.00000000E+00  0.00000000E+00  3.14159265E+00
  0.00000000E+00  0.00000000E+00  0.00000000E+00  0.00000000E+00  3.14159265E+00
  3.14159265E+00  0.00000000E+00  3.14159265E+00  3.14159265E+00  3.14159265E+00
  3.14159265E+00  0.00000000E+00  3.14159265E+00  3.14159265E+00  3.14159265E+00
  3.14159265E+00  3.14159265E+00  3.14159265E+00  3.14159265E+00  3.14159265E+00
  0.00000000E+00  3.14159265E+00  0.00000000E+00  0.00000000E+00  3.14159265E+00
  0.00000000E+00  0.00000000E+00  0.00000000E+00  0.00000000E+00  3.14159265E+00
  0.00000000E+00  3.14159265E+00  3.14159265E+00  3.14159265E+00  0.00000000E+00
  0.00000000E+00  0.00000000E+00  0.00000000E+00  0.00000000E+00  0.00000000E+00
  3.14159265E+00  3.14159265E+00  3.14159265E+00  3.14159265E+00  0.00000000E+00
  0.00000000E+00  3.14159265E+00  0.00000000E+00  0.00000000E+00  0.00000000E+00
  0.00000000E+00  3.14159265E+00  3.14159265E+00  3.14159265E+00  3.14159265E+00
  3.14159265E+00  3.14159265E+00  3.14159265E+00  3.14159265E+00  3.14159265E+00
  3.14159265E+00  0.00000000E+00  0.00000000E+00  3.14159265E+00  0.00000000E+00
  0.00000000E+00  0.00000000E+00  0.00000000E+00  0.00000000E+00  0.00000000E+00
  0.00000000E+00  0.00000000E+00  0.00000000E+00  3.14159265E+00  3.14159265E+00
  3.14159265E+00  3.14159265E+00  0.00000000E+00  0.00000000E+00  0.00000000E+00
  0.00000000E+00  0.00000000E+00  3.14159265E+00  0.00000000E+00  0.00000000E+00
  0.00000000E+00  3.14159265E+00  3.14159265E+00  0.00000000E+00  3.14159265E+00
  3.14159265E+00  3.14159265E+00  3.14159265E+00  3.14159265E+00  3.14159265E+00
  3.14159265E+00  3.14159265E+00  3.14159265E+00  3.14159265E+00  3.14159265E+00
  3.14159265E+00  3.14159265E+00  3.14159265E+00  3.14159265E+00  3.14159265E+00
  3.14159265E+00  3.14159265E+00  3.14159265E+00  3.14159265E+00  3.14159265E+00
  3.14159265E+00  0.00000000E+00  0.00000000E+00  0.00000000E+00  0.00000000E+00
  3.14159265E+00  3.14159265E+00  0.00000000E+00  0.00000000E+00  0.00000000E+00
  0.00000000E+00  0.00000000E+00  0.00000000E+00  0.00000000E+00  0.00000000E+00
  0.00000000E+00  0.00000000E+00  0.00000000E+00  3.14159265E+00  3.14159265E+00
  0.00000000E+00  0.00000000E+00  0.00000000E+00  0.00000000E+00  0.00000000E+00
  0.00000000E+00  0.00000000E+00  0.00000000E+00  0.00000000E+00  0.00000000E+00
  0.00000000E+00  0.00000000E+00  0.00000000E+00  3.14159265E+00  0.00000000E+00
  0.00000000E+00  0.00000000E+00  3.14159265E+00  3.14159265E+00  0.00000000E+00
  0.00000000E+00  0.00000000E+00  0.00000000E+00  0.00000000E+00  0.00000000E+00
  0.00000000E+00  0.00000000E+00  0.00000000E+00  0.00000000E+00  0.00000000E+00
  0.00000000E+00  3.14159265E+00  3.14159265E+00  0.00000000E+00  0.00000000E+00
  0.00000000E+00  0.00000000E+00  0.00000000E+00  0.00000000E+00  0.00000000E+00
  0.00000000E+00  0.00000000E+00  0.00000000E+00  0.00000000E+00  0.00000000E+00
  0.00000000E+00  0.00000000E+00  0.00000000E+00  0.00000000E+00  3.14159265E+00
  3.14159265E+00  3.14159265E+00  3.14159265E+00  3.14159265E+00  3.14159265E+00
  3.14159265E+00  3.14159265E+00  3.14159265E+00  3.14159265E+00  3.14159265E+00
  3.14159265E+00  3.14159265E+00  0.00000000E+00  0.00000000E+00  0.00000000E+00
  3.14159265E+00  3.14159265E+00  0.00000000E+00  0.00000000E+00  0.00000000E+00
  0.00000000E+00  0.00000000E+00  0.00000000E+00  0.00000000E+00  0.00000000E+00
  0.00000000E+00  0.00000000E+00  0.00000000E+00  0.00000000E+00  3.14159265E+00
  3.14159265E+00  0.00000000E+00  0.00000000E+00  0.00000000E+00  0.00000000E+00
  0.00000000E+00  0.00000000E+00  0.00000000E+00  0.00000000E+00  0.00000000E+00
  0.00000000E+00  0.00000000E+00  0.00000000E+00  0.00000000E+00  0.00000000E+00
  0.00000000E+00  0.00000000E+00  0.00000000E+00  0.00000000E+00  0.00000000E+00
  0.00000000E+00  0.00000000E+00  0.00000000E+00  0.00000000E+00  0.00000000E+00
  0.00000000E+00  3.14159265E+00  0.00000000E+00  0.00000000E+00  0.00000000E+00
  3.14159265E+00  3.14159265E+00  0.00000000E+00  0.00000000E+00  0.00000000E+00
  0.00000000E+00  0.00000000E+00  0.00000000E+00  0.00000000E+00  0.00000000E+00
  0.00000000E+00  0.00000000E+00  0.00000000E+00  0.00000000E+00  3.14159265E+00
  3.14159265E+00  0.00000000E+00  0.00000000E+00  0.00000000E+00  0.00000000E+00
  0.00000000E+00  0.00000000E+00  0.00000000E+00  0.00000000E+00  0.00000000E+00
  0.00000000E+00  0.00000000E+00  0.00000000E+00  0.00000000E+00  0.00000000E+00
  0.00000000E+00  0.00000000E+00  0.00000000E+00  0.00000000E+00  0.00000000E+00
  0.00000000E+00  0.00000000E+00  0.00000000E+00  0.00000000E+00  0.00000000E+00
  0.00000000E+00  0.00000000E+00  0.00000000E+00  0.00000000E+00  0.00000000E+00
  0.00000000E+00  0.00000000E+00  0.00000000E+00  0.00000000E+00  0.00000000E+00
  3.14159265E+00  0.00000000E+00  0.00000000E+00  0.00000000E+00  3.14159265E+00
  3.14159265E+00  0.00000000E+00  0.00000000E+00  0.00000000E+00  0.00000000E+00
  0.00000000E+00  0.00000000E+00  0.00000000E+00  0.00000000E+00  0.00000000E+00
  0.00000000E+00  0.00000000E+00  0.00000000E+00  3.14159265E+00  3.14159265E+00
  0.00000000E+00  0.00000000E+00  0.00000000E+00  0.00000000E+00  0.00000000E+00
  0.00000000E+00  0.00000000E+00  0.00000000E+00  0.00000000E+00  0.00000000E+00
  0.00000000E+00  0.00000000E+00  0.00000000E+00  0.00000000E+00  0.00000000E+00
  0.00000000E+00  0.00000000E+00  0.00000000E+00  0.00000000E+00  0.00000000E+00
  0.00000000E+00  0.00000000E+00  0.00000000E+00  0.00000000E+00  0.00000000E+00
  3.14159265E+00  0.00000000E+00  0.00000000E+00  0.00000000E+00  3.14159265E+00
  3.14159265E+00  0.00000000E+00  0.00000000E+00  0.00000000E+00  0.00000000E+00
  0.00000000E+00  0.00000000E+00  0.00000000E+00  0.00000000E+00  0.00000000E+00
  0.00000000E+00  0.00000000E+00  0.00000000E+00  3.14159265E+00  3.14159265E+00
  0.00000000E+00  0.00000000E+00  0.00000000E+00  0.00000000E+00  0.00000000E+00
  0.00000000E+00  0.00000000E+00  0.00000000E+00  0.00000000E+00  0.00000000E+00
  0.00000000E+00  0.00000000E+00  0.00000000E+00  0.00000000E+00  0.00000000E+00
  0.00000000E+00  0.00000000E+00  0.00000000E+00  0.00000000E+00  0.00000000E+00
  0.00000000E+00  0.00000000E+00  0.00000000E+00  0.00000000E+00  0.00000000E+00
  0.00000000E+00  0.00000000E+00  0.00000000E+00  0.00000000E+00  0.00000000E+00
  0.00000000E+00  0.00000000E+00  0.00000000E+00  0.00000000E+00  3.14159265E+00
  0.00000000E+00  0.00000000E+00  0.00000000E+00  3.14159265E+00  3.14159265E+00
  0.00000000E+00  0.00000000E+00  0.00000000E+00  0.00000000E+00  0.00000000E+00
  0.00000000E+00  0.00000000E+00  0.00000000E+00  0.00000000E+00  0.00000000E+00
  3.14159265E+00  3.14159265E+00  0.00000000E+00  0.00000000E+00  0.00000000E+00
  3.14159265E+00  0.00000000E+00  0.00000000E+00  0.00000000E+00  3.14159265E+00
  3.14159265E+00  3.14159265E+00  3.14159265E+00  0.00000000E+00  0.00000000E+00
  0.00000000E+00  0.00000000E+00  0.00000000E+00  0.00000000E+00  0.00000000E+00
  0.00000000E+00  0.00000000E+00  3.14159265E+00  3.14159265E+00  0.00000000E+00
  3.14159265E+00  0.00000000E+00  0.00000000E+00  0.00000000E+00  3.14159265E+00
  3.14159265E+00  0.00000000E+00  0.00000000E+00  0.00000000E+00  0.00000000E+00
  0.00000000E+00  0.00000000E+00  0.00000000E+00  0.00000000E+00  0.00000000E+00
  3.14159265E+00  3.14159265E+00  0.00000000E+00  3.14159265E+00  0.00000000E+00
  0.00000000E+00  0.00000000E+00  3.14159265E+00  3.14159265E+00  0.00000000E+00
  0.00000000E+00  3.14159265E+00  0.00000000E+00  0.00000000E+00  0.00000000E+00
  0.00000000E+00  0.00000000E+00  0.00000000E+00  0.00000000E+00  0.00000000E+00
  0.00000000E+00  3.14159265E+00  3.14159265E+00  0.00000000E+00  0.00000000E+00
  0.00000000E+00  0.00000000E+00  0.00000000E+00  0.00000000E+00  0.00000000E+00
  0.00000000E+00  0.00000000E+00  3.14159265E+00  0.00000000E+00  0.00000000E+00
  0.00000000E+00  3.14159265E+00  3.14159265E+00  0.00000000E+00  0.00000000E+00
  0.00000000E+00  0.00000000E+00  0.00000000E+00  0.00000000E+00  0.00000000E+00
  0.00000000E+00  0.00000000E+00  3.14159265E+00  3.14159265E+00  0.00000000E+00
  3.14159265E+00  0.00000000E+00  3.14159265E+00  3.14159265E+00  3.14159265E+00
  3.14159265E+00  0.00000000E+00  0.00000000E+00  0.00000000E+00  0.00000000E+00
  0.00000000E+00  0.00000000E+00  0.00000000E+00  0.00000000E+00  0.00000000E+00
  0.00000000E+00  0.00000000E+00  0.00000000E+00  0.00000000E+00  0.00000000E+00
  0.00000000E+00  3.14159265E+00  3.14159265E+00  0.00000000E+00  0.00000000E+00
  0.00000000E+00  0.00000000E+00  0.00000000E+00  0.00000000E+00  0.00000000E+00
  0.00000000E+00  0.00000000E+00  0.00000000E+00  0.00000000E+00  0.00000000E+00
  0.00000000E+00  0.00000000E+00  0.00000000E+00  0.00000000E+00  0.00000000E+00
  0.00000000E+00  0.00000000E+00  0.00000000E+00  0.00000000E+00  0.00000000E+00
  3.14159265E+00  0.00000000E+00  0.00000000E+00  0.00000000E+00  3.14159265E+00
  3.14159265E+00  0.00000000E+00  0.00000000E+00  0.00000000E+00  0.00000000E+00
  0.00000000E+00  0.00000000E+00  0.00000000E+00  0.00000000E+00  0.00000000E+00
  3.14159265E+00  3.14159265E+00  0.00000000E+00  3.14159265E+00  0.00000000E+00
  0.00000000E+00  0.00000000E+00  3.14159265E+00  3.14159265E+00  0.00000000E+00
  0.00000000E+00  0.00000000E+00  0.00000000E+00  0.00000000E+00  0.00000000E+00
  0.00000000E+00  0.00000000E+00  0.00000000E+00  0.00000000E+00  3.14159265E+00
  3.14159265E+00  0.00000000E+00  0.00000000E+00  0.00000000E+00  3.14159265E+00
  0.00000000E+00  0.00000000E+00  0.00000000E+00  3.14159265E+00  3.14159265E+00
  0.00000000E+00  0.00000000E+00  0.00000000E+00  0.00000000E+00  0.00000000E+00
  0.00000000E+00  0.00000000E+00  0.00000000E+00  0.00000000E+00  0.00000000E+00
  0.00000000E+00  0.00000000E+00  3.14159265E+00  3.14159265E+00  0.00000000E+00
  0.00000000E+00  0.00000000E+00  0.00000000E+00  0.00000000E+00  0.00000000E+00
  0.00000000E+00  0.00000000E+00  0.00000000E+00  0.00000000E+00  0.00000000E+00
  0.00000000E+00  0.00000000E+00  0.00000000E+00  0.00000000E+00  0.00000000E+00
  3.14159265E+00  3.14159265E+00  3.14159265E+00  3.14159265E+00  3.14159265E+00
  3.14159265E+00  3.14159265E+00  3.14159265E+00  3.14159265E+00  3.14159265E+00
  3.14159265E+00  3.14159265E+00  3.14159265E+00  0.00000000E+00  0.00000000E+00
  0.00000000E+00  3.14159265E+00  3.14159265E+00  0.00000000E+00  0.00000000E+00
  0.00000000E+00  0.00000000E+00  0.00000000E+00  0.00000000E+00  0.00000000E+00
  0.00000000E+00  0.00000000E+00  0.00000000E+00  0.00000000E+00  0.00000000E+00
  3.14159265E+00  3.14159265E+00  0.00000000E+00  0.00000000E+00  0.00000000E+00
  0.00000000E+00  0.00000000E+00  0.00000000E+00  0.00000000E+00  0.00000000E+00
  0.00000000E+00  0.00000000E+00  0.00000000E+00  0.00000000E+00  0.00000000E+00
  0.00000000E+00  0.00000000E+00  0.00000000E+00  0.00000000E+00  0.00000000E+00
  0.00000000E+00  0.00000000E+00  0.00000000E+00  0.00000000E+00  0.00000000E+00
  0.00000000E+00  0.00000000E+00  3.14159265E+00  0.00000000E+00  0.00000000E+00
  0.00000000E+00  3.14159265E+00  3.14159265E+00  3.14159265E+00  3.14159265E+00
  0.00000000E+00  0.00000000E+00  0.00000000E+00  0.00000000E+00  0.00000000E+00
  0.00000000E+00  0.00000000E+00  0.00000000E+00  3.14159265E+00  3.14159265E+00
  0.00000000E+00  3.14159265E+00  3.14159265E+00  3.14159265E+00  0.00000000E+00
  0.00000000E+00  0.00000000E+00  0.00000000E+00  3.14159265E+00  3.14159265E+00
  3.14159265E+00  0.00000000E+00  0.00000000E+00  0.00000000E+00  3.14159265E+00
  3.14159265E+00  0.00000000E+00  0.00000000E+00  0.00000000E+00  0.00000000E+00
  0.00000000E+00  0.00000000E+00  0.00000000E+00  0.00000000E+00  0.00000000E+00
  0.00000000E+00  3.14159265E+00  3.14159265E+00  0.00000000E+00  0.00000000E+00
  0.00000000E+00  3.14159265E+00  0.00000000E+00  0.00000000E+00  3.14159265E+00
  3.14159265E+00  3.14159265E+00  0.00000000E+00  0.00000000E+00  0.00000000E+00
  0.00000000E+00  0.00000000E+00  0.00000000E+00  0.00000000E+00  0.00000000E+00
  0.00000000E+00  0.00000000E+00  0.00000000E+00  0.00000000E+00  0.00000000E+00
  3.14159265E+00  3.14159265E+00  0.00000000E+00  0.00000000E+00  0.00000000E+00
  0.00000000E+00  0.00000000E+00  0.00000000E+00  0.00000000E+00  0.00000000E+00
  0.00000000E+00  3.14159265E+00  0.00000000E+00  0.00000000E+00  0.00000000E+00
  3.14159265E+00  3.14159265E+00  0.00000000E+00  0.00000000E+00  0.00000000E+00
  0.00000000E+00  0.00000000E+00  0.00000000E+00  0.00000000E+00  0.00000000E+00
  0.00000000E+00  3.14159265E+00  3.14159265E+00  0.00000000E+00  3.14159265E+00
  0.00000000E+00  0.00000000E+00  0.00000000E+00  3.14159265E+00  3.14159265E+00
  3.14159265E+00  0.00000000E+00  0.00000000E+00  0.00000000E+00  0.00000000E+00
  0.00000000E+00  0.00000000E+00  0.00000000E+00  0.00000000E+00  0.00000000E+00
  3.14159265E+00  3.14159265E+00  0.00000000E+00  3.14159265E+00  3.14159265E+00
  3.14159265E+00  3.14159265E+00  3.14159265E+00  3.14159265E+00  3.14159265E+00
  3.14159265E+00  3.14159265E+00  3.14159265E+00  3.14159265E+00  3.14159265E+00
  3.14159265E+00  3.14159265E+00  3.14159265E+00  3.14159265E+00  3.14159265E+00
  3.14159265E+00  3.14159265E+00  3.14159265E+00  3.14159265E+00  3.14159265E+00
  3.14159265E+00  3.14159265E+00  3.14159265E+00  3.14159265E+00  3.14159265E+00
  3.14159265E+00  3.14159265E+00  3.14159265E+00  3.14159265E+00  3.14159265E+00
  3.14159265E+00  0.00000000E+00  0.00000000E+00  3.14159265E+00  3.14159265E+00
  3.14159265E+00  0.00000000E+00  0.00000000E+00  0.00000000E+00  0.00000000E+00
  0.00000000E+00  0.00000000E+00  0.00000000E+00  0.00000000E+00  0.00000000E+00
  0.00000000E+00  0.00000000E+00  0.00000000E+00  0.00000000E+00  3.14159265E+00
  3.14159265E+00  0.00000000E+00  0.00000000E+00  0.00000000E+00  0.00000000E+00
  0.00000000E+00  0.00000000E+00  0.00000000E+00  0.00000000E+00  0.00000000E+00
  0.00000000E+00  0.00000000E+00  0.00000000E+00  3.14159265E+00  3.14159265E+00
  0.00000000E+00  0.00000000E+00  0.00000000E+00  0.00000000E+00  0.00000000E+00
  0.00000000E+00  3.14159265E+00  3.14159265E+00  3.14159265E+00  3.14159265E+00
  3.14159265E+00  3.14159265E+00  0.00000000E+00  0.00000000E+00  0.00000000E+00
  3.14159265E+00  3.14159265E+00  3.14159265E+00  3.14159265E+00  3.14159265E+00
  3.14159265E+00  3.14159265E+00  3.14159265E+00  3.14159265E+00  3.14159265E+00
  3.14159265E+00  3.14159265E+00  3.14159265E+00  3.14159265E+00  3.14159265E+00
  3.14159265E+00  3.14159265E+00  3.14159265E+00  3.14159265E+00  3.14159265E+00
  3.14159265E+00  3.14159265E+00  3.14159265E+00  3.14159265E+00  3.14159265E+00
  3.14159265E+00  3.14159265E+00  3.14159265E+00  3.14159265E+00  3.14159265E+00
  3.14159265E+00  3.14159265E+00  3.14159265E+00  3.14159265E+00  3.14159265E+00
  3.14159265E+00  3.14159265E+00  3.14159265E+00  3.14159265E+00  3.14159265E+00
  3.14159265E+00  3.14159265E+00  3.14159265E+00  3.14159265E+00  3.14159265E+00
  3.14159265E+00  3.14159265E+00  3.14159265E+00  0.00000000E+00  0.00000000E+00
  0.00000000E+00  0.00000000E+00  0.00000000E+00  0.00000000E+00  0.00000000E+00
  0.00000000E+00  0.00000000E+00  0.00000000E+00  0.00000000E+00  0.00000000E+00
  0.00000000E+00  0.00000000E+00  0.00000000E+00  0.00000000E+00  0.00000000E+00
  0.00000000E+00  0.00000000E+00  0.00000000E+00  0.00000000E+00  0.00000000E+00
  0.00000000E+00  0.00000000E+00  0.00000000E+00  0.00000000E+00  0.00000000E+00
  0.00000000E+00  0.00000000E+00  0.00000000E+00  0.00000000E+00  0.00000000E+00
  0.00000000E+00  0.00000000E+00  0.00000000E+00  0.00000000E+00  0.00000000E+00
  0.00000000E+00  0.00000000E+00  0.00000000E+00  0.00000000E+00  0.00000000E+00
  0.00000000E+00  0.00000000E+00  0.00000000E+00  0.00000000E+00  0.00000000E+00
  0.00000000E+00  0.00000000E+00  0.00000000E+00  0.00000000E+00  0.00000000E+00
  0.00000000E+00  0.00000000E+00  0.00000000E+00  0.00000000E+00  0.00000000E+00
  0.00000000E+00  0.00000000E+00  0.00000000E+00  0.00000000E+00  0.00000000E+00
  0.00000000E+00  0.00000000E+00  0.00000000E+00  0.00000000E+00  0.00000000E+00
  0.00000000E+00  0.00000000E+00  0.00000000E+00  0.00000000E+00  0.00000000E+00
  0.00000000E+00  0.00000000E+00  0.00000000E+00  0.00000000E+00  0.00000000E+00
  0.00000000E+00  0.00000000E+00  0.00000000E+00  0.00000000E+00  0.00000000E+00
  0.00000000E+00  0.00000000E+00  0.00000000E+00  0.00000000E+00  0.00000000E+00
  0.00000000E+00  0.00000000E+00  0.00000000E+00  0.00000000E+00  0.00000000E+00
  0.00000000E+00  0.00000000E+00  0.00000000E+00  0.00000000E+00  0.00000000E+00
  0.00000000E+00  0.00000000E+00  0.00000000E+00  0.00000000E+00  0.00000000E+00
  0.00000000E+00  0.00000000E+00  0.00000000E+00  0.00000000E+00  0.00000000E+00
  0.00000000E+00  0.00000000E+00  0.00000000E+00  0.00000000E+00  0.00000000E+00
  0.00000000E+00  0.00000000E+00  0.00000000E+00  0.00000000E+00  0.00000000E+00
  0.00000000E+00  0.00000000E+00  0.00000000E+00  0.00000000E+00  0.00000000E+00
  0.00000000E+00  0.00000000E+00  0.00000000E+00  0.00000000E+00  0.00000000E+00
  0.00000000E+00  0.00000000E+00  0.00000000E+00  0.00000000E+00  0.00000000E+00
  0.00000000E+00  0.00000000E+00  0.00000000E+00  0.00000000E+00  0.00000000E+00
  0.00000000E+00  0.00000000E+00  0.00000000E+00  0.00000000E+00  0.00000000E+00
  0.00000000E+00  0.00000000E+00  0.00000000E+00  0.00000000E+00  0.00000000E+00
  0.00000000E+00  0.00000000E+00  0.00000000E+00  0.00000000E+00  0.00000000E+00
  0.00000000E+00  0.00000000E+00  0.00000000E+00  0.00000000E+00  0.00000000E+00
  0.00000000E+00  0.00000000E+00  0.00000000E+00  0.00000000E+00  0.00000000E+00
  0.00000000E+00  0.00000000E+00  0.00000000E+00  0.00000000E+00  0.00000000E+00
  0.00000000E+00  0.00000000E+00  0.00000000E+00  0.00000000E+00  0.00000000E+00
  0.00000000E+00  0.00000000E+00  0.00000000E+00  0.00000000E+00  0.00000000E+00
  0.00000000E+00  0.00000000E+00  0.00000000E+00  0.00000000E+00  0.00000000E+00
  0.00000000E+00  0.00000000E+00  0.00000000E+00  0.00000000E+00  0.00000000E+00
  0.00000000E+00  0.00000000E+00  0.00000000E+00  0.00000000E+00  0.00000000E+00
  0.00000000E+00  0.00000000E+00  0.00000000E+00  0.00000000E+00  0.00000000E+00
  0.00000000E+00  0.00000000E+00  0.00000000E+00  0.00000000E+00  0.00000000E+00
  0.00000000E+00  0.00000000E+00  0.00000000E+00  0.00000000E+00  0.00000000E+00
  0.00000000E+00  0.00000000E+00  0.00000000E+00  0.00000000E+00  0.00000000E+00
  0.00000000E+00  0.00000000E+00  0.00000000E+00  0.00000000E+00  0.00000000E+00
%FLAG SCEE_SCALE_FACTOR
%FORMAT(5E16.8)
  1.00000000E+00  1.00000000E+00  1.00000000E+00  1.00000000E+00  1.00000000E+00
  1.00000000E+00  1.00000000E+00  1.00000000E+00  1.00000000E+00  1.00000000E+00
  1.00000000E+00  1.00000000E+00  1.00000000E+00  1.00000000E+00  1.00000000E+00
  1.00000000E+00  1.00000000E+00  1.00000000E+00  1.00000000E+00  1.00000000E+00
  1.00000000E+00  1.00000000E+00  1.00000000E+00  1.00000000E+00  1.00000000E+00
  1.00000000E+00  1.00000000E+00  1.00000000E+00  1.00000000E+00  1.00000000E+00
  1.00000000E+00  1.00000000E+00  1.00000000E+00  1.00000000E+00  1.00000000E+00
  1.00000000E+00  1.00000000E+00  1.00000000E+00  1.00000000E+00  1.00000000E+00
  1.00000000E+00  1.00000000E+00  1.00000000E+00  1.00000000E+00  1.00000000E+00
  1.00000000E+00  1.00000000E+00  1.00000000E+00  1.00000000E+00  1.00000000E+00
  1.00000000E+00  1.00000000E+00  1.00000000E+00  1.00000000E+00  1.00000000E+00
  1.00000000E+00  1.00000000E+00  1.00000000E+00  1.00000000E+00  1.00000000E+00
  1.00000000E+00  1.00000000E+00  1.00000000E+00  1.00000000E+00  1.00000000E+00
  1.00000000E+00  1.00000000E+00  1.00000000E+00  1.00000000E+00  1.00000000E+00
  1.00000000E+00  1.00000000E+00  1.00000000E+00  1.00000000E+00  1.00000000E+00
  1.00000000E+00  1.00000000E+00  1.00000000E+00  1.00000000E+00  1.00000000E+00
  1.00000000E+00  1.00000000E+00  1.00000000E+00  1.00000000E+00  1.00000000E+00
  1.00000000E+00  1.00000000E+00  1.00000000E+00  1.00000000E+00  1.00000000E+00
  1.00000000E+00  1.20000000E+00  1.20000000E+00  1.20000000E+00  1.20000000E+00
  1.20000000E+00  1.20000000E+00  1.20000000E+00  1.20000000E+00  1.20000000E+00
  1.20000000E+00  1.20000000E+00  1.20000000E+00  1.20000000E+00  1.20000000E+00
  1.20000000E+00  1.20000000E+00  1.20000000E+00  1.20000000E+00  1.20000000E+00
  1.20000000E+00  1.20000000E+00  1.20000000E+00  1.20000000E+00  1.20000000E+00
  1.20000000E+00  1.20000000E+00  1.20000000E+00  1.20000000E+00  1.20000000E+00
  1.20000000E+00  1.20000000E+00  1.20000000E+00  1.20000000E+00  1.20000000E+00
  1.20000000E+00  1.20000000E+00  1.20000000E+00  1.20000000E+00  1.20000000E+00
  1.20000000E+00  1.20000000E+00  1.20000000E+00  1.20000000E+00  1.20000000E+00
  1.20000000E+00  1.20000000E+00  1.20000000E+00  1.20000000E+00  1.20000000E+00
  1.20000000E+00  1.20000000E+00  1.20000000E+00  1.20000000E+00  1.20000000E+00
  1.20000000E+00  1.20000000E+00  1.20000000E+00  1.20000000E+00  1.20000000E+00
  1.20000000E+00  1.20000000E+00  1.20000000E+00  1.20000000E+00  1.20000000E+00
  1.20000000E+00  1.20000000E+00  1.20000000E+00  1.20000000E+00  1.20000000E+00
  1.20000000E+00  1.20000000E+00  1.20000000E+00  1.20000000E+00  1.20000000E+00
  1.20000000E+00  1.20000000E+00  1.20000000E+00  1.20000000E+00  1.20000000E+00
  1.20000000E+00  1.20000000E+00  1.20000000E+00  1.20000000E+00  1.20000000E+00
  1.20000000E+00  1.20000000E+00  1.20000000E+00  1.20000000E+00  1.20000000E+00
  1.20000000E+00  1.20000000E+00  1.20000000E+00  1.20000000E+00  1.20000000E+00
  1.20000000E+00  1.20000000E+00  1.20000000E+00  1.20000000E+00  1.20000000E+00
  1.20000000E+00  1.20000000E+00  1.20000000E+00  1.20000000E+00  1.20000000E+00
  1.20000000E+00  1.20000000E+00  1.20000000E+00  1.20000000E+00  1.20000000E+00
  1.20000000E+00  1.20000000E+00  1.20000000E+00  1.20000000E+00  1.20000000E+00
  1.20000000E+00  1.20000000E+00  1.20000000E+00  1.20000000E+00  1.20000000E+00
  1.20000000E+00  1.20000000E+00  1.20000000E+00  1.20000000E+00  1.20000000E+00
  1.20000000E+00  1.20000000E+00  1.20000000E+00  1.20000000E+00  1.20000000E+00
  1.20000000E+00  1.20000000E+00  1.20000000E+00  1.20000000E+00  1.20000000E+00
  1.20000000E+00  1.20000000E+00  1.20000000E+00  1.20000000E+00  1.20000000E+00
  1.20000000E+00  1.20000000E+00  1.20000000E+00  1.20000000E+00  1.20000000E+00
  1.20000000E+00  1.20000000E+00  1.20000000E+00  1.20000000E+00  1.20000000E+00
  1.20000000E+00  1.20000000E+00  1.20000000E+00  1.20000000E+00  1.20000000E+00
  1.20000000E+00  1.20000000E+00  1.20000000E+00  1.20000000E+00  1.20000000E+00
  1.20000000E+00  1.20000000E+00  1.20000000E+00  1.20000000E+00  1.20000000E+00
  1.20000000E+00  1.20000000E+00  1.20000000E+00  1.20000000E+00  1.20000000E+00
  1.20000000E+00  1.20000000E+00  1.20000000E+00  1.20000000E+00  1.20000000E+00
  1.20000000E+00  1.20000000E+00  1.20000000E+00  1.20000000E+00  1.20000000E+00
  1.20000000E+00  1.20000000E+00  1.20000000E+00  1.20000000E+00  1.20000000E+00
  1.20000000E+00  1.20000000E+00  1.20000000E+00  1.20000000E+00  1.20000000E+00
  1.20000000E+00  1.20000000E+00  1.20000000E+00  1.20000000E+00  1.20000000E+00
  1.20000000E+00  1.20000000E+00  1.20000000E+00  1.20000000E+00  1.20000000E+00
  1.20000000E+00  1.20000000E+00  1.20000000E+00  1.20000000E+00  1.20000000E+00
  1.20000000E+00  1.20000000E+00  1.20000000E+00  1.20000000E+00  1.20000000E+00
  1.20000000E+00  1.20000000E+00  1.20000000E+00  1.20000000E+00  1.20000000E+00
  1.20000000E+00  1.20000000E+00  1.20000000E+00  1.20000000E+00  1.20000000E+00
  1.20000000E+00  1.20000000E+00  1.20000000E+00  1.20000000E+00  1.20000000E+00
  1.20000000E+00  1.20000000E+00  1.20000000E+00  1.20000000E+00  1.20000000E+00
  1.20000000E+00  1.20000000E+00  1.20000000E+00  1.20000000E+00  1.20000000E+00
  1.20000000E+00  1.20000000E+00  1.20000000E+00  1.20000000E+00  1.20000000E+00
  1.20000000E+00  1.20000000E+00  1.20000000E+00  1.20000000E+00  1.20000000E+00
  1.20000000E+00  1.20000000E+00  1.20000000E+00  1.20000000E+00  1.20000000E+00
  1.20000000E+00  1.20000000E+00  1.20000000E+00  1.20000000E+00  1.20000000E+00
  1.20000000E+00  1.20000000E+00  1.20000000E+00  1.20000000E+00  1.20000000E+00
  1.20000000E+00  1.20000000E+00  1.20000000E+00  1.20000000E+00  1.20000000E+00
  1.20000000E+00  1.20000000E+00  1.20000000E+00  1.20000000E+00  1.20000000E+00
  1.20000000E+00  1.20000000E+00  1.20000000E+00  1.20000000E+00  1.20000000E+00
  1.20000000E+00  1.20000000E+00  1.20000000E+00  1.20000000E+00  1.20000000E+00
  1.20000000E+00  1.20000000E+00  1.20000000E+00  1.20000000E+00  1.20000000E+00
  1.20000000E+00  1.20000000E+00  1.20000000E+00  1.20000000E+00  1.20000000E+00
  1.20000000E+00  1.20000000E+00  1.20000000E+00  1.20000000E+00  1.20000000E+00
  1.20000000E+00  1.20000000E+00  1.20000000E+00  1.20000000E+00  1.20000000E+00
  1.20000000E+00  1.20000000E+00  1.20000000E+00  1.20000000E+00  1.20000000E+00
  1.20000000E+00  1.20000000E+00  1.20000000E+00  1.20000000E+00  1.20000000E+00
  1.20000000E+00  1.20000000E+00  1.20000000E+00  1.20000000E+00  1.20000000E+00
  1.20000000E+00  1.20000000E+00  1.20000000E+00  1.20000000E+00  1.20000000E+00
  1.20000000E+00  1.20000000E+00  1.20000000E+00  1.20000000E+00  1.20000000E+00
  1.20000000E+00  1.20000000E+00  1.20000000E+00  1.20000000E+00  1.20000000E+00
  1.20000000E+00  1.20000000E+00  1.20000000E+00  1.20000000E+00  1.20000000E+00
  1.20000000E+00  1.20000000E+00  1.20000000E+00  1.20000000E+00  1.20000000E+00
  1.20000000E+00  1.20000000E+00  1.20000000E+00  1.20000000E+00  1.20000000E+00
  1.20000000E+00  1.20000000E+00  1.20000000E+00  1.20000000E+00  1.20000000E+00
  1.20000000E+00  1.20000000E+00  1.20000000E+00  1.20000000E+00  1.20000000E+00
  1.20000000E+00  1.20000000E+00  1.20000000E+00  1.20000000E+00  1.20000000E+00
  1.20000000E+00  1.20000000E+00  1.20000000E+00  1.20000000E+00  1.20000000E+00
  1.20000000E+00  1.20000000E+00  1.20000000E+00  1.20000000E+00  1.20000000E+00
  1.20000000E+00  1.20000000E+00  1.20000000E+00  1.20000000E+00  1.20000000E+00
  1.20000000E+00  1.20000000E+00  1.20000000E+00  1.20000000E+00  1.20000000E+00
  1.20000000E+00  1.20000000E+00  1.20000000E+00  1.20000000E+00  1.20000000E+00
  1.20000000E+00  1.20000000E+00  1.20000000E+00  1.20000000E+00  1.20000000E+00
  1.20000000E+00  1.20000000E+00  1.20000000E+00  1.20000000E+00  1.20000000E+00
  1.20000000E+00  1.20000000E+00  1.20000000E+00  1.20000000E+00  1.20000000E+00
  1.20000000E+00  1.20000000E+00  1.20000000E+00  1.20000000E+00  1.20000000E+00
  1.20000000E+00  1.20000000E+00  1.20000000E+00  1.20000000E+00  1.20000000E+00
  1.20000000E+00  1.20000000E+00  1.20000000E+00  1.20000000E+00  1.20000000E+00
  1.20000000E+00  1.20000000E+00  1.20000000E+00  1.20000000E+00  1.20000000E+00
  1.20000000E+00  1.20000000E+00  1.20000000E+00  1.20000000E+00  1.20000000E+00
  1.20000000E+00  1.20000000E+00  1.20000000E+00  1.20000000E+00  1.20000000E+00
  1.20000000E+00  1.20000000E+00  1.20000000E+00  1.20000000E+00  1.20000000E+00
  1.20000000E+00  1.20000000E+00  1.20000000E+00  1.20000000E+00  1.20000000E+00
  1.20000000E+00  1.20000000E+00  1.20000000E+00  1.20000000E+00  1.20000000E+00
  1.20000000E+00  1.20000000E+00  1.20000000E+00  1.20000000E+00  1.20000000E+00
  1.20000000E+00  1.20000000E+00  1.20000000E+00  1.20000000E+00  1.20000000E+00
  1.20000000E+00  1.20000000E+00  1.20000000E+00  1.20000000E+00  1.20000000E+00
  1.20000000E+00  1.20000000E+00  1.20000000E+00  1.20000000E+00  1.20000000E+00
  1.20000000E+00  1.20000000E+00  1.20000000E+00  1.20000000E+00  1.20000000E+00
  1.20000000E+00  1.20000000E+00  1.20000000E+00  1.20000000E+00  1.20000000E+00
  1.20000000E+00  1.20000000E+00  1.20000000E+00  1.20000000E+00  1.20000000E+00
  1.20000000E+00  1.20000000E+00  1.20000000E+00  1.20000000E+00  1.20000000E+00
  1.20000000E+00  1.20000000E+00  1.20000000E+00  1.20000000E+00  1.20000000E+00
  1.20000000E+00  1.20000000E+00  1.20000000E+00  1.20000000E+00  1.20000000E+00
  1.20000000E+00  1.20000000E+00  1.20000000E+00  1.20000000E+00  1.20000000E+00
  1.20000000E+00  1.20000000E+00  1.20000000E+00  1.20000000E+00  1.20000000E+00
  1.20000000E+00  1.20000000E+00  1.20000000E+00  1.20000000E+00  1.20000000E+00
  1.20000000E+00  1.20000000E+00  1.20000000E+00  1.20000000E+00  1.20000000E+00
  1.20000000E+00  1.20000000E+00  1.20000000E+00  1.20000000E+00  1.20000000E+00
  1.20000000E+00  1.20000000E+00  1.20000000E+00  1.20000000E+00  1.20000000E+00
  1.20000000E+00  1.20000000E+00  1.20000000E+00  1.20000000E+00  1.20000000E+00
  1.20000000E+00  1.20000000E+00  1.20000000E+00  1.20000000E+00  1.20000000E+00
  1.20000000E+00  1.20000000E+00  1.20000000E+00  1.20000000E+00  1.20000000E+00
  1.20000000E+00  1.20000000E+00  1.20000000E+00  1.20000000E+00  1.20000000E+00
  1.20000000E+00  1.20000000E+00  1.20000000E+00  1.20000000E+00  1.20000000E+00
  1.20000000E+00  1.20000000E+00  1.20000000E+00  1.20000000E+00  1.20000000E+00
  1.20000000E+00  1.20000000E+00  1.20000000E+00  1.20000000E+00  1.20000000E+00
  1.20000000E+00  1.20000000E+00  1.20000000E+00  1.20000000E+00  1.20000000E+00
  1.20000000E+00  1.20000000E+00  1.20000000E+00  1.20000000E+00  1.20000000E+00
  1.20000000E+00  1.20000000E+00  1.20000000E+00  1.20000000E+00  1.20000000E+00
  1.20000000E+00  1.20000000E+00  1.20000000E+00  1.20000000E+00  1.20000000E+00
  1.20000000E+00  1.20000000E+00  1.20000000E+00  1.20000000E+00  1.20000000E+00
  1.20000000E+00  1.20000000E+00  1.20000000E+00  1.20000000E+00  1.20000000E+00
  1.20000000E+00  1.20000000E+00  1.20000000E+00  1.20000000E+00  1.20000000E+00
  1.20000000E+00  1.20000000E+00  1.20000000E+00  1.20000000E+00  1.20000000E+00
  1.20000000E+00  1.20000000E+00  1.20000000E+00  1.20000000E+00  1.20000000E+00
  1.20000000E+00  1.20000000E+00  1.20000000E+00  1.20000000E+00  1.20000000E+00
  1.20000000E+00  1.20000000E+00  1.20000000E+00  1.20000000E+00  1.20000000E+00
  1.20000000E+00  1.20000000E+00  1.20000000E+00  1.20000000E+00  1.20000000E+00
  1.20000000E+00  1.20000000E+00  1.20000000E+00  1.20000000E+00  1.20000000E+00
  1.20000000E+00  1.20000000E+00  1.20000000E+00  1.20000000E+00  1.20000000E+00
  1.20000000E+00  1.20000000E+00  1.20000000E+00  1.20000000E+00  1.20000000E+00
  1.20000000E+00  1.20000000E+00  1.20000000E+00  1.20000000E+00  1.20000000E+00
  1.20000000E+00  1.20000000E+00  1.20000000E+00  1.20000000E+00  1.20000000E+00
  1.20000000E+00  1.20000000E+00  1.20000000E+00  1.20000000E+00  1.20000000E+00
  1.20000000E+00  1.20000000E+00  1.20000000E+00  1.20000000E+00  1.20000000E+00
  1.20000000E+00  1.20000000E+00  1.20000000E+00  1.20000000E+00  1.20000000E+00
  1.20000000E+00  1.20000000E+00  1.20000000E+00  1.20000000E+00  1.20000000E+00
  1.20000000E+00  1.20000000E+00  1.20000000E+00  1.20000000E+00  1.20000000E+00
  1.20000000E+00  1.20000000E+00  1.20000000E+00  1.20000000E+00  1.20000000E+00
  1.20000000E+00  1.20000000E+00  1.20000000E+00  1.20000000E+00  1.20000000E+00
  1.20000000E+00  1.20000000E+00  1.20000000E+00  1.20000000E+00  1.20000000E+00
  1.20000000E+00  1.20000000E+00  1.20000000E+00  1.20000000E+00  1.20000000E+00
  1.20000000E+00  1.20000000E+00  1.20000000E+00  1.20000000E+00  1.20000000E+00
  1.20000000E+00  1.20000000E+00  1.20000000E+00  1.20000000E+00  1.20000000E+00
  1.20000000E+00  1.20000000E+00  1.20000000E+00  1.20000000E+00  1.20000000E+00
  1.20000000E+00  1.20000000E+00  1.20000000E+00  1.20000000E+00  1.20000000E+00
  1.20000000E+00  1.20000000E+00  1.20000000E+00  1.20000000E+00  1.20000000E+00
  1.20000000E+00  1.20000000E+00  1.20000000E+00  1.20000000E+00  1.20000000E+00
  1.20000000E+00  1.20000000E+00  1.20000000E+00  1.20000000E+00  1.20000000E+00
  1.20000000E+00  1.20000000E+00  1.20000000E+00  1.20000000E+00  1.20000000E+00
  1.20000000E+00  1.20000000E+00  1.20000000E+00  1.20000000E+00  1.20000000E+00
  1.20000000E+00  1.20000000E+00  1.20000000E+00  1.20000000E+00  1.20000000E+00
  1.20000000E+00  1.20000000E+00  1.20000000E+00  1.20000000E+00  1.20000000E+00
  1.20000000E+00  1.20000000E+00  1.20000000E+00  1.20000000E+00  1.20000000E+00
  1.20000000E+00  1.20000000E+00  1.20000000E+00  1.20000000E+00  1.20000000E+00
  1.20000000E+00  1.20000000E+00  1.20000000E+00  1.20000000E+00  1.20000000E+00
  1.20000000E+00  1.20000000E+00  1.20000000E+00  1.20000000E+00  1.20000000E+00
  1.20000000E+00  1.20000000E+00  1.20000000E+00  1.20000000E+00  1.20000000E+00
  1.20000000E+00  1.20000000E+00  1.20000000E+00  1.20000000E+00  1.20000000E+00
  1.20000000E+00  1.20000000E+00  1.20000000E+00  1.20000000E+00  1.20000000E+00
  1.20000000E+00  1.20000000E+00  1.20000000E+00  1.20000000E+00  1.20000000E+00
  1.20000000E+00  1.20000000E+00  1.20000000E+00  1.20000000E+00  1.20000000E+00
  1.20000000E+00  1.20000000E+00  1.20000000E+00  1.20000000E+00  1.20000000E+00
  1.20000000E+00  1.20000000E+00  1.20000000E+00  1.20000000E+00  1.20000000E+00
  1.20000000E+00  1.20000000E+00  1.20000000E+00  1.20000000E+00  1.20000000E+00
  1.20000000E+00  1.20000000E+00  1.20000000E+00  1.20000000E+00  1.20000000E+00
  1.20000000E+00  1.20000000E+00  1.20000000E+00  1.20000000E+00  1.20000000E+00
  1.20000000E+00  1.20000000E+00  1.20000000E+00  1.20000000E+00  1.20000000E+00
  1.20000000E+00  1.20000000E+00  1.20000000E+00  1.20000000E+00  1.20000000E+00
  1.20000000E+00  1.20000000E+00  1.20000000E+00  1.20000000E+00  1.20000000E+00
  1.20000000E+00  1.20000000E+00  1.20000000E+00  1.20000000E+00  1.20000000E+00
  1.20000000E+00  1.20000000E+00  1.20000000E+00  1.20000000E+00  1.20000000E+00
  1.20000000E+00  1.20000000E+00  1.20000000E+00  1.20000000E+00  1.20000000E+00
  1.20000000E+00  1.20000000E+00  1.20000000E+00  1.20000000E+00  1.20000000E+00
  1.20000000E+00  1.20000000E+00  1.20000000E+00  1.20000000E+00  1.20000000E+00
  1.20000000E+00  1.20000000E+00  1.20000000E+00  1.20000000E+00  1.20000000E+00
  1.20000000E+00  1.20000000E+00  1.20000000E+00  1.20000000E+00  1.20000000E+00
  1.20000000E+00  1.20000000E+00  1.20000000E+00  1.20000000E+00  1.20000000E+00
  1.20000000E+00  1.20000000E+00  1.20000000E+00  1.20000000E+00  1.20000000E+00
  1.20000000E+00  1.20000000E+00  1.20000000E+00  1.20000000E+00  1.20000000E+00
  1.20000000E+00  1.20000000E+00  1.20000000E+00  1.20000000E+00  1.20000000E+00
  1.20000000E+00  1.20000000E+00  1.20000000E+00  1.20000000E+00  1.20000000E+00
  1.20000000E+00  1.20000000E+00  1.20000000E+00  1.20000000E+00  1.20000000E+00
  1.20000000E+00  1.20000000E+00  1.20000000E+00  1.20000000E+00  1.20000000E+00
  1.20000000E+00  1.20000000E+00  1.20000000E+00  1.20000000E+00  1.20000000E+00
  1.20000000E+00  1.20000000E+00  1.20000000E+00  1.20000000E+00  1.20000000E+00
  1.20000000E+00  1.20000000E+00  1.20000000E+00  1.20000000E+00  1.20000000E+00
  1.20000000E+00  1.20000000E+00  1.20000000E+00  1.20000000E+00  1.20000000E+00
  1.20000000E+00  1.20000000E+00  1.20000000E+00  1.20000000E+00  1.20000000E+00
  1.20000000E+00  1.20000000E+00  1.20000000E+00  1.20000000E+00  1.20000000E+00
  1.20000000E+00  1.20000000E+00  1.20000000E+00  1.20000000E+00  1.20000000E+00
  1.20000000E+00  1.20000000E+00  1.20000000E+00  1.20000000E+00  1.20000000E+00
  1.20000000E+00  1.20000000E+00  1.20000000E+00  1.20000000E+00  1.20000000E+00
  1.20000000E+00  1.20000000E+00  1.20000000E+00  1.20000000E+00  1.20000000E+00
  1.20000000E+00  1.20000000E+00  1.20000000E+00  1.20000000E+00  1.20000000E+00
  1.20000000E+00  1.20000000E+00  1.20000000E+00  1.20000000E+00  1.20000000E+00
  1.20000000E+00  1.20000000E+00  1.20000000E+00  1.20000000E+00  1.20000000E+00
  1.20000000E+00  1.20000000E+00  1.20000000E+00  1.20000000E+00  1.20000000E+00
  1.20000000E+00  1.20000000E+00  1.20000000E+00  1.20000000E+00  1.20000000E+00
  1.20000000E+00  1.20000000E+00  1.20000000E+00  1.20000000E+00  1.20000000E+00
  1.20000000E+00  1.20000000E+00  1.20000000E+00  1.20000000E+00  1.20000000E+00
  1.20000000E+00  1.20000000E+00  1.20000000E+00  1.20000000E+00  1.20000000E+00
  1.20000000E+00  1.20000000E+00  1.20000000E+00  1.20000000E+00  1.20000000E+00
  1.20000000E+00  1.20000000E+00  1.20000000E+00  1.20000000E+00  1.20000000E+00
  1.20000000E+00  1.20000000E+00  1.20000000E+00  1.20000000E+00  1.20000000E+00
  1.20000000E+00  1.20000000E+00  1.20000000E+00  1.20000000E+00  1.20000000E+00
  1.20000000E+00  1.20000000E+00  1.20000000E+00  1.20000000E+00  1.20000000E+00
  1.20000000E+00  1.20000000E+00  1.20000000E+00  1.20000000E+00  1.20000000E+00
  1.20000000E+00  1.20000000E+00  1.20000000E+00  1.20000000E+00  1.20000000E+00
  1.20000000E+00  1.20000000E+00  1.20000000E+00  1.20000000E+00  1.20000000E+00
  1.20000000E+00  1.20000000E+00  1.20000000E+00  1.20000000E+00  1.20000000E+00
  1.20000000E+00  1.20000000E+00  1.20000000E+00  1.20000000E+00  1.20000000E+00
  1.20000000E+00  1.20000000E+00  1.20000000E+00  1.20000000E+00  1.20000000E+00
  1.20000000E+00  1.20000000E+00  1.20000000E+00  1.20000000E+00  1.20000000E+00
  1.20000000E+00  1.20000000E+00  1.20000000E+00  1.20000000E+00  1.20000000E+00
  1.20000000E+00  1.20000000E+00  1.20000000E+00  1.20000000E+00  1.20000000E+00
  1.20000000E+00  1.20000000E+00  1.20000000E+00  1.20000000E+00  1.20000000E+00
  1.20000000E+00  1.20000000E+00  1.20000000E+00  1.20000000E+00  1.20000000E+00
  1.20000000E+00  1.20000000E+00  1.20000000E+00  1.20000000E+00  1.20000000E+00
%FLAG SCNB_SCALE_FACTOR
%FORMAT(5E16.8)
  1.00000000E+00  1.00000000E+00  1.00000000E+00  1.00000000E+00  1.00000000E+00
  1.00000000E+00  1.00000000E+00  1.00000000E+00  1.00000000E+00  1.00000000E+00
  1.00000000E+00  1.00000000E+00  1.00000000E+00  1.00000000E+00  1.00000000E+00
  1.00000000E+00  1.00000000E+00  1.00000000E+00  1.00000000E+00  1.00000000E+00
  1.00000000E+00  1.00000000E+00  1.00000000E+00  1.00000000E+00  1.00000000E+00
  1.00000000E+00  1.00000000E+00  1.00000000E+00  1.00000000E+00  1.00000000E+00
  1.00000000E+00  1.00000000E+00  1.00000000E+00  1.00000000E+00  1.00000000E+00
  1.00000000E+00  1.00000000E+00  1.00000000E+00  1.00000000E+00  1.00000000E+00
  1.00000000E+00  1.00000000E+00  1.00000000E+00  1.00000000E+00  1.00000000E+00
  1.00000000E+00  1.00000000E+00  1.00000000E+00  1.00000000E+00  1.00000000E+00
  1.00000000E+00  1.00000000E+00  1.00000000E+00  1.00000000E+00  1.00000000E+00
  1.00000000E+00  1.00000000E+00  1.00000000E+00  1.00000000E+00  1.00000000E+00
  1.00000000E+00  1.00000000E+00  1.00000000E+00  1.00000000E+00  1.00000000E+00
  1.00000000E+00  1.00000000E+00  1.00000000E+00  1.00000000E+00  1.00000000E+00
  1.00000000E+00  1.00000000E+00  1.00000000E+00  1.00000000E+00  1.00000000E+00
  1.00000000E+00  1.00000000E+00  1.00000000E+00  1.00000000E+00  1.00000000E+00
  1.00000000E+00  1.00000000E+00  1.00000000E+00  1.00000000E+00  1.00000000E+00
  1.00000000E+00  1.00000000E+00  1.00000000E+00  1.00000000E+00  1.00000000E+00
  1.00000000E+00  2.00000000E+00  2.00000000E+00  2.00000000E+00  2.00000000E+00
  2.00000000E+00  2.00000000E+00  2.00000000E+00  2.00000000E+00  2.00000000E+00
  2.00000000E+00  2.00000000E+00  2.00000000E+00  2.00000000E+00  2.00000000E+00
  2.00000000E+00  2.00000000E+00  2.00000000E+00  2.00000000E+00  2.00000000E+00
  2.00000000E+00  2.00000000E+00  2.00000000E+00  2.00000000E+00  2.00000000E+00
  2.00000000E+00  2.00000000E+00  2.00000000E+00  2.00000000E+00  2.00000000E+00
  2.00000000E+00  2.00000000E+00  2.00000000E+00  2.00000000E+00  2.00000000E+00
  2.00000000E+00  2.00000000E+00  2.00000000E+00  2.00000000E+00  2.00000000E+00
  2.00000000E+00  2.00000000E+00  2.00000000E+00  2.00000000E+00  2.00000000E+00
  2.00000000E+00  2.00000000E+00  2.00000000E+00  2.00000000E+00  2.00000000E+00
  2.00000000E+00  2.00000000E+00  2.00000000E+00  2.00000000E+00  2.00000000E+00
  2.00000000E+00  2.00000000E+00  2.00000000E+00  2.00000000E+00  2.00000000E+00
  2.00000000E+00  2.00000000E+00  2.00000000E+00  2.00000000E+00  2.00000000E+00
  2.00000000E+00  2.00000000E+00  2.00000000E+00  2.00000000E+00  2.00000000E+00
  2.00000000E+00  2.00000000E+00  2.00000000E+00  2.00000000E+00  2.00000000E+00
  2.00000000E+00  2.00000000E+00  2.00000000E+00  2.00000000E+00  2.00000000E+00
  2.00000000E+00  2.00000000E+00  2.00000000E+00  2.00000000E+00  2.00000000E+00
  2.00000000E+00  2.00000000E+00  2.00000000E+00  2.00000000E+00  2.00000000E+00
  2.00000000E+00  2.00000000E+00  2.00000000E+00  2.00000000E+00  2.00000000E+00
  2.00000000E+00  2.00000000E+00  2.00000000E+00  2.00000000E+00  2.00000000E+00
  2.00000000E+00  2.00000000E+00  2.00000000E+00  2.00000000E+00  2.00000000E+00
  2.00000000E+00  2.00000000E+00  2.00000000E+00  2.00000000E+00  2.00000000E+00
  2.00000000E+00  2.00000000E+00  2.00000000E+00  2.00000000E+00  2.00000000E+00
  2.00000000E+00  2.00000000E+00  2.00000000E+00  2.00000000E+00  2.00000000E+00
  2.00000000E+00  2.00000000E+00  2.00000000E+00  2.00000000E+00  2.00000000E+00
  2.00000000E+00  2.00000000E+00  2.00000000E+00  2.00000000E+00  2.00000000E+00
  2.00000000E+00  2.00000000E+00  2.00000000E+00  2.00000000E+00  2.00000000E+00
  2.00000000E+00  2.00000000E+00  2.00000000E+00  2.00000000E+00  2.00000000E+00
  2.00000000E+00  2.00000000E+00  2.00000000E+00  2.00000000E+00  2.00000000E+00
  2.00000000E+00  2.00000000E+00  2.00000000E+00  2.00000000E+00  2.00000000E+00
  2.00000000E+00  2.00000000E+00  2.00000000E+00  2.00000000E+00  2.00000000E+00
  2.00000000E+00  2.00000000E+00  2.00000000E+00  2.00000000E+00  2.00000000E+00
  2.00000000E+00  2.00000000E+00  2.00000000E+00  2.00000000E+00  2.00000000E+00
  2.00000000E+00  2.00000000E+00  2.00000000E+00  2.00000000E+00  2.00000000E+00
  2.00000000E+00  2.00000000E+00  2.00000000E+00  2.00000000E+00  2.00000000E+00
  2.00000000E+00  2.00000000E+00  2.00000000E+00  2.00000000E+00  2.00000000E+00
  2.00000000E+00  2.00000000E+00  2.00000000E+00  2.00000000E+00  2.00000000E+00
  2.00000000E+00  2.00000000E+00  2.00000000E+00  2.00000000E+00  2.00000000E+00
  2.00000000E+00  2.00000000E+00  2.00000000E+00  2.00000000E+00  2.00000000E+00
  2.00000000E+00  2.00000000E+00  2.00000000E+00  2.00000000E+00  2.00000000E+00
  2.00000000E+00  2.00000000E+00  2.00000000E+00  2.00000000E+00  2.00000000E+00
  2.00000000E+00  2.00000000E+00  2.00000000E+00  2.00000000E+00  2.00000000E+00
  2.00000000E+00  2.00000000E+00  2.00000000E+00  2.00000000E+00  2.00000000E+00
  2.00000000E+00  2.00000000E+00  2.00000000E+00  2.00000000E+00  2.00000000E+00
  2.00000000E+00  2.00000000E+00  2.00000000E+00  2.00000000E+00  2.00000000E+00
  2.00000000E+00  2.00000000E+00  2.00000000E+00  2.00000000E+00  2.00000000E+00
  2.00000000E+00  2.00000000E+00  2.00000000E+00  2.00000000E+00  2.00000000E+00
  2.00000000E+00  2.00000000E+00  2.00000000E+00  2.00000000E+00  2.00000000E+00
  2.00000000E+00  2.00000000E+00  2.00000000E+00  2.00000000E+00  2.00000000E+00
  2.00000000E+00  2.00000000E+00  2.00000000E+00  2.00000000E+00  2.00000000E+00
  2.00000000E+00  2.00000000E+00  2.00000000E+00  2.00000000E+00  2.00000000E+00
  2.00000000E+00  2.00000000E+00  2.00000000E+00  2.00000000E+00  2.00000000E+00
  2.00000000E+00  2.00000000E+00  2.00000000E+00  2.00000000E+00  2.00000000E+00
  2.00000000E+00  2.00000000E+00  2.00000000E+00  2.00000000E+00  2.00000000E+00
  2.00000000E+00  2.00000000E+00  2.00000000E+00  2.00000000E+00  2.00000000E+00
  2.00000000E+00  2.00000000E+00  2.00000000E+00  2.00000000E+00  2.00000000E+00
  2.00000000E+00  2.00000000E+00  2.00000000E+00  2.00000000E+00  2.00000000E+00
  2.00000000E+00  2.00000000E+00  2.00000000E+00  2.00000000E+00  2.00000000E+00
  2.00000000E+00  2.00000000E+00  2.00000000E+00  2.00000000E+00  2.00000000E+00
  2.00000000E+00  2.00000000E+00  2.00000000E+00  2.00000000E+00  2.00000000E+00
  2.00000000E+00  2.00000000E+00  2.00000000E+00  2.00000000E+00  2.00000000E+00
  2.00000000E+00  2.00000000E+00  2.00000000E+00  2.00000000E+00  2.00000000E+00
  2.00000000E+00  2.00000000E+00  2.00000000E+00  2.00000000E+00  2.00000000E+00
  2.00000000E+00  2.00000000E+00  2.00000000E+00  2.00000000E+00  2.00000000E+00
  2.00000000E+00  2.00000000E+00  2.00000000E+00  2.00000000E+00  2.00000000E+00
  2.00000000E+00  2.00000000E+00  2.00000000E+00  2.00000000E+00  2.00000000E+00
  2.00000000E+00  2.00000000E+00  2.00000000E+00  2.00000000E+00  2.00000000E+00
  1.00000000E+10  2.00000000E+00  2.00000000E+00  2.00000000E+00  2.00000000E+00
  2.00000000E+00  2.00000000E+00  2.00000000E+00  2.00000000E+00  2.00000000E+00
  2.00000000E+00  2.00000000E+00  2.00000000E+00  1.00000000E+10  1.00000000E+10
  2.00000000E+00  2.00000000E+00  2.00000000E+00  2.00000000E+00  2.00000000E+00
  2.00000000E+00  2.00000000E+00  2.00000000E+00  2.00000000E+00  2.00000000E+00
  2.00000000E+00  2.00000000E+00  2.00000000E+00  2.00000000E+00  2.00000000E+00
  2.00000000E+00  2.00000000E+00  2.00000000E+00  2.00000000E+00  2.00000000E+00
  2.00000000E+00  2.00000000E+00  2.00000000E+00  2.00000000E+00  2.00000000E+00
  2.00000000E+00  2.00000000E+00  2.00000000E+00  2.00000000E+00  2.00000000E+00
  2.00000000E+00  2.00000000E+00  2.00000000E+00  2.00000000E+00  2.00000000E+00
  2.00000000E+00  2.00000000E+00  2.00000000E+00  2.00000000E+00  2.00000000E+00
  2.00000000E+00  2.00000000E+00  2.00000000E+00  2.00000000E+00  2.00000000E+00
  2.00000000E+00  2.00000000E+00  2.00000000E+00  2.00000000E+00  2.00000000E+00
  2.00000000E+00  2.00000000E+00  2.00000000E+00  2.00000000E+00  2.00000000E+00
  2.00000000E+00  2.00000000E+00  2.00000000E+00  2.00000000E+00  2.00000000E+00
  2.00000000E+00  2.00000000E+00  2.00000000E+00  2.00000000E+00  2.00000000E+00
  2.00000000E+00  2.00000000E+00  2.00000000E+00  2.00000000E+00  2.00000000E+00
  2.00000000E+00  2.00000000E+00  2.00000000E+00  2.00000000E+00  2.00000000E+00
  2.00000000E+00  2.00000000E+00  2.00000000E+00  2.00000000E+00  2.00000000E+00
  2.00000000E+00  2.00000000E+00  2.00000000E+00  2.00000000E+00  2.00000000E+00
  2.00000000E+00  2.00000000E+00  2.00000000E+00  2.00000000E+00  2.00000000E+00
  2.00000000E+00  2.00000000E+00  2.00000000E+00  2.00000000E+00  2.00000000E+00
  2.00000000E+00  2.00000000E+00  2.00000000E+00  2.00000000E+00  2.00000000E+00
  2.00000000E+00  2.00000000E+00  2.00000000E+00  2.00000000E+00  2.00000000E+00
  2.00000000E+00  2.00000000E+00  2.00000000E+00  2.00000000E+00  2.00000000E+00
  2.00000000E+00  2.00000000E+00  2.00000000E+00  2.00000000E+00  2.00000000E+00
  2.00000000E+00  2.00000000E+00  2.00000000E+00  2.00000000E+00  2.00000000E+00
  2.00000000E+00  2.00000000E+00  2.00000000E+00  2.00000000E+00  2.00000000E+00
  2.00000000E+00  2.00000000E+00  2.00000000E+00  2.00000000E+00  2.00000000E+00
  2.00000000E+00  2.00000000E+00  2.00000000E+00  2.00000000E+00  2.00000000E+00
  2.00000000E+00  2.00000000E+00  2.00000000E+00  2.00000000E+00  2.00000000E+00
  2.00000000E+00  2.00000000E+00  2.00000000E+00  2.00000000E+00  2.00000000E+00
  2.00000000E+00  2.00000000E+00  2.00000000E+00  2.00000000E+00  2.00000000E+00
  2.00000000E+00  2.00000000E+00  2.00000000E+00  2.00000000E+00  1.00000000E+10
  2.00000000E+00  2.00000000E+00  2.00000000E+00  2.00000000E+00  2.00000000E+00
  2.00000000E+00  2.00000000E+00  2.00000000E+00  2.00000000E+00  2.00000000E+00
  2.00000000E+00  2.00000000E+00  1.00000000E+10  1.00000000E+10  2.00000000E+00
  2.00000000E+00  2.00000000E+00  2.00000000E+00  2.00000000E+00  2.00000000E+00
  2.00000000E+00  2.00000000E+00  2.00000000E+00  2.00000000E+00  2.00000000E+00
  2.00000000E+00  2.00000000E+00  2.00000000E+00  2.00000000E+00  2.00000000E+00
  2.00000000E+00  2.00000000E+00  2.00000000E+00  2.00000000E+00  2.00000000E+00
  2.00000000E+00  2.00000000E+00  2.00000000E+00  2.00000000E+00  2.00000000E+00
  2.00000000E+00  2.00000000E+00  2.00000000E+00  2.00000000E+00  2.00000000E+00
  2.00000000E+00  2.00000000E+00  2.00000000E+00  2.00000000E+00  2.00000000E+00
  2.00000000E+00  2.00000000E+00  2.00000000E+00  2.00000000E+00  2.00000000E+00
  2.00000000E+00  2.00000000E+00  2.00000000E+00  2.00000000E+00  2.00000000E+00
  2.00000000E+00  2.00000000E+00  2.00000000E+00  2.00000000E+00  2.00000000E+00
  2.00000000E+00  2.00000000E+00  2.00000000E+00  2.00000000E+00  2.00000000E+00
  2.00000000E+00  2.00000000E+00  2.00000000E+00  2.00000000E+00  2.00000000E+00
  2.00000000E+00  2.00000000E+00  2.00000000E+00  2.00000000E+00  2.00000000E+00
  2.00000000E+00  2.00000000E+00  2.00000000E+00  2.00000000E+00  2.00000000E+00
  2.00000000E+00  2.00000000E+00  2.00000000E+00  2.00000000E+00  2.00000000E+00
  2.00000000E+00  2.00000000E+00  2.00000000E+00  2.00000000E+00  2.00000000E+00
  2.00000000E+00  2.00000000E+00  2.00000000E+00  2.00000000E+00  2.00000000E+00
  2.00000000E+00  2.00000000E+00  2.00000000E+00  2.00000000E+00  2.00000000E+00
  2.00000000E+00  2.00000000E+00  2.00000000E+00  2.00000000E+00  2.00000000E+00
  2.00000000E+00  2.00000000E+00  2.00000000E+00  2.00000000E+00  2.00000000E+00
  2.00000000E+00  2.00000000E+00  2.00000000E+00  2.00000000E+00  2.00000000E+00
  2.00000000E+00  2.00000000E+00  2.00000000E+00  2.00000000E+00  2.00000000E+00
  2.00000000E+00  2.00000000E+00  2.00000000E+00  2.00000000E+00  2.00000000E+00
  2.00000000E+00  2.00000000E+00  2.00000000E+00  2.00000000E+00  2.00000000E+00
  2.00000000E+00  2.00000000E+00  2.00000000E+00  2.00000000E+00  2.00000000E+00
  2.00000000E+00  1.00000000E+10  2.00000000E+00  2.00000000E+00  2.00000000E+00
  2.00000000E+00  2.00000000E+00  2.00000000E+00  2.00000000E+00  2.00000000E+00
  2.00000000E+00  2.00000000E+00  2.00000000E+00  2.00000000E+00  1.00000000E+10
  1.00000000E+10  2.00000000E+00  2.00000000E+00  2.00000000E+00  2.00000000E+00
  2.00000000E+00  2.00000000E+00  1.00000000E+10  2.00000000E+00  2.00000000E+00
  2.00000000E+00  2.00000000E+00  2.00000000E+00  2.00000000E+00  2.00000000E+00
  2.00000000E+00  2.00000000E+00  2.00000000E+00  2.00000000E+00  2.00000000E+00
  2.00000000E+00  2.00000000E+00  2.00000000E+00  1.00000000E+10  2.00000000E+00
  2.00000000E+00  2.00000000E+00  2.00000000E+00  2.00000000E+00  2.00000000E+00
  1.00000000E+10  2.00000000E+00  2.00000000E+00  2.00000000E+00  2.00000000E+00
  2.00000000E+00  2.00000000E+00  2.00000000E+00  2.00000000E+00  2.00000000E+00
  2.00000000E+00  2.00000000E+00  2.00000000E+00  2.00000000E+00  2.00000000E+00
  2.00000000E+00  2.00000000E+00  2.00000000E+00  2.00000000E+00  2.00000000E+00
  2.00000000E+00  2.00000000E+00  2.00000000E+00  2.00000000E+00  2.00000000E+00
  2.00000000E+00  2.00000000E+00  2.00000000E+00  2.00000000E+00  2.00000000E+00
  2.00000000E+00  2.00000000E+00  2.00000000E+00  2.00000000E+00  2.00000000E+00
  2.00000000E+00  2.00000000E+00  2.00000000E+00  2.00000000E+00  2.00000000E+00
  2.00000000E+00  2.00000000E+00  2.00000000E+00  2.00000000E+00  2.00000000E+00
  2.00000000E+00  2.00000000E+00  2.00000000E+00  2.00000000E+00  2.00000000E+00
  2.00000000E+00  2.00000000E+00  2.00000000E+00  2.00000000E+00  2.00000000E+00
  2.00000000E+00  2.00000000E+00  2.00000000E+00  2.00000000E+00  2.00000000E+00
  2.00000000E+00  2.00000000E+00  2.00000000E+00  2.00000000E+00  2.00000000E+00
  2.00000000E+00  2.00000000E+00  2.00000000E+00  2.00000000E+00  2.00000000E+00
  2.00000000E+00  2.00000000E+00  2.00000000E+00  2.00000000E+00  2.00000000E+00
  2.00000000E+00  1.00000000E+10  2.00000000E+00  2.00000000E+00  2.00000000E+00
  2.00000000E+00  2.00000000E+00  2.00000000E+00  2.00000000E+00  2.00000000E+00
  2.00000000E+00  2.00000000E+00  2.00000000E+00  2.00000000E+00  2.00000000E+00
  2.00000000E+00  2.00000000E+00  1.00000000E+10  2.00000000E+00  2.00000000E+00
  2.00000000E+00  2.00000000E+00  2.00000000E+00  2.00000000E+00  1.00000000E+10
  2.00000000E+00  2.00000000E+00  2.00000000E+00  2.00000000E+00  2.00000000E+00
  2.00000000E+00  2.00000000E+00  2.00000000E+00  2.00000000E+00  2.00000000E+00
  2.00000000E+00  2.00000000E+00  2.00000000E+00  2.00000000E+00  2.00000000E+00
  2.00000000E+00  2.00000000E+00  2.00000000E+00  2.00000000E+00  2.00000000E+00
  2.00000000E+00  2.00000000E+00  2.00000000E+00  2.00000000E+00  2.00000000E+00
  2.00000000E+00  2.00000000E+00  2.00000000E+00  2.00000000E+00  2.00000000E+00
  2.00000000E+00  2.00000000E+00  2.00000000E+00  2.00000000E+00  2.00000000E+00
  2.00000000E+00  2.00000000E+00  2.00000000E+00  2.00000000E+00  2.00000000E+00
  2.00000000E+00  2.00000000E+00  2.00000000E+00  2.00000000E+00  2.00000000E+00
  2.00000000E+00  2.00000000E+00  2.00000000E+00  2.00000000E+00  2.00000000E+00
  2.00000000E+00  2.00000000E+00  2.00000000E+00  2.00000000E+00  2.00000000E+00
  2.00000000E+00  2.00000000E+00  2.00000000E+00  2.00000000E+00  2.00000000E+00
  2.00000000E+00  2.00000000E+00  2.00000000E+00  2.00000000E+00  2.00000000E+00
  2.00000000E+00  2.00000000E+00  2.00000000E+00  2.00000000E+00  2.00000000E+00
  2.00000000E+00  2.00000000E+00  2.00000000E+00  2.00000000E+00  2.00000000E+00
  2.00000000E+00  2.00000000E+00  2.00000000E+00  2.00000000E+00  2.00000000E+00
  2.00000000E+00  2.00000000E+00  2.00000000E+00  2.00000000E+00  2.00000000E+00
  2.00000000E+00  2.00000000E+00  2.00000000E+00  2.00000000E+00  2.00000000E+00
  2.00000000E+00  2.00000000E+00  2.00000000E+00  2.00000000E+00  2.00000000E+00
  2.00000000E+00  2.00000000E+00  2.00000000E+00  2.00000000E+00  2.00000000E+00
  2.00000000E+00  2.00000000E+00  2.00000000E+00  2.00000000E+00  2.00000000E+00
  2.00000000E+00  2.00000000E+00  2.00000000E+00  2.00000000E+00  2.00000000E+00
  2.00000000E+00  2.00000000E+00  2.00000000E+00  2.00000000E+00  2.00000000E+00
  2.00000000E+00  2.00000000E+00  2.00000000E+00  2.00000000E+00  2.00000000E+00
  2.00000000E+00  2.00000000E+00  2.00000000E+00  2.00000000E+00  2.00000000E+00
  2.00000000E+00  2.00000000E+00  2.00000000E+00  2.00000000E+00  2.00000000E+00
  2.00000000E+00  2.00000000E+00  2.00000000E+00  2.00000000E+00  2.00000000E+00
  2.00000000E+00  2.00000000E+00  2.00000000E+00  2.00000000E+00  2.00000000E+00
  2.00000000E+00  2.00000000E+00  2.00000000E+00  2.00000000E+00  2.00000000E+00
  2.00000000E+00  2.00000000E+00  2.00000000E+00  2.00000000E+00  2.00000000E+00
  2.00000000E+00  2.00000000E+00  2.00000000E+00  2.00000000E+00  2.00000000E+00
  2.00000000E+00  2.00000000E+00  2.00000000E+00  2.00000000E+00  2.00000000E+00
  2.00000000E+00  2.00000000E+00  2.00000000E+00  2.00000000E+00  2.00000000E+00
  2.00000000E+00  2.00000000E+00  2.00000000E+00  2.00000000E+00  2.00000000E+00
  2.00000000E+00  2.00000000E+00  2.00000000E+00  2.00000000E+00  2.00000000E+00
  2.00000000E+00  2.00000000E+00  2.00000000E+00  2.00000000E+00  2.00000000E+00
  2.00000000E+00  2.00000000E+00  2.00000000E+00  2.00000000E+00  2.00000000E+00
  2.00000000E+00  2.00000000E+00  2.00000000E+00  2.00000000E+00  2.00000000E+00
  2.00000000E+00  2.00000000E+00  2.00000000E+00  2.00000000E+00  2.00000000E+00
  2.00000000E+00  2.00000000E+00  2.00000000E+00  2.00000000E+00  2.00000000E+00
  2.00000000E+00  2.00000000E+00  2.00000000E+00  2.00000000E+00  2.00000000E+00
  2.00000000E+00  2.00000000E+00  2.00000000E+00  2.00000000E+00  2.00000000E+00
  2.00000000E+00  2.00000000E+00  2.00000000E+00  2.00000000E+00  2.00000000E+00
  2.00000000E+00  2.00000000E+00  2.00000000E+00  2.00000000E+00  2.00000000E+00
  2.00000000E+00  2.00000000E+00  2.00000000E+00  2.00000000E+00  2.00000000E+00
  2.00000000E+00  2.00000000E+00  2.00000000E+00  2.00000000E+00  2.00000000E+00
  2.00000000E+00  2.00000000E+00  2.00000000E+00  2.00000000E+00  2.00000000E+00
  2.00000000E+00  2.00000000E+00  2.00000000E+00  2.00000000E+00  2.00000000E+00
  2.00000000E+00  2.00000000E+00  2.00000000E+00  2.00000000E+00  2.00000000E+00
  2.00000000E+00  2.00000000E+00  2.00000000E+00  2.00000000E+00  2.00000000E+00
  2.00000000E+00  2.00000000E+00  2.00000000E+00  2.00000000E+00  2.00000000E+00
  2.00000000E+00  2.00000000E+00  2.00000000E+00  2.00000000E+00  2.00000000E+00
  2.00000000E+00  2.00000000E+00  2.00000000E+00  2.00000000E+00  2.00000000E+00
  2.00000000E+00  2.00000000E+00  2.00000000E+00  2.00000000E+00  2.00000000E+00
  2.00000000E+00  2.00000000E+00  2.00000000E+00  2.00000000E+00  2.00000000E+00
  2.00000000E+00  2.00000000E+00  2.00000000E+00  2.00000000E+00  2.00000000E+00
  2.00000000E+00  2.00000000E+00  2.00000000E+00  2.00000000E+00  2.00000000E+00
%FLAG SOLTY
%FORMAT(5E16.8)
  0.00000000E+00
%FLAG LENNARD_JONES_ACOEF
%FORMAT(5E16.8)
  9.44293233E+05  2.12601181E+03  1.39982777E-01  9.95480466E+05  2.56678134E+03
  1.04308023E+06  2.01791425E+04  9.14716912E+00  2.27401052E+04  2.01823541E+02
  8.82619071E+05  2.27577561E+03  9.24822270E+05  2.01619733E+04  8.19971662E+05
  6.06829342E+05  1.02595236E+03  6.47841731E+05  1.12780457E+04  5.74393458E+05
  3.79876399E+05  8.96776989E+04  1.07193646E+02  9.71708117E+04  1.41077189E+03
  8.61541883E+04  5.44261042E+04  7.51607703E+03  7.91627154E+04  8.90987508E+01
  8.59947003E+04  1.21014911E+03  7.62451550E+04  4.77908183E+04  6.55825601E+03
  5.71629601E+03  6.20665997E+04  5.94667300E+01  6.78771368E+04  8.79040886E+02
  6.01816484E+04  3.69471530E+04  4.98586848E+03  4.33325458E+03  3.25969625E+03
  7.44975864E+05  1.40467023E+03  7.91544157E+05  1.45985502E+04  7.01803794E+05
  4.71003287E+05  6.82786631E+04  6.00750218E+04  4.66922514E+04  5.81803229E+05
  0.00000000E+00  0.00000000E+00  0.00000000E+00  0.00000000E+00  0.00000000E+00
  0.00000000E+00  0.00000000E+00  0.00000000E+00  0.00000000E+00  0.00000000E+00
  0.00000000E+00  6.58473870E+04  6.63368273E+01  7.18621074E+04  9.55000044E+02
  6.37148278E+04  3.93690817E+04  5.34045360E+03  4.64559155E+03  3.50301067E+03
  4.96707306E+04  0.00000000E+00  3.76169105E+03  9.84684600E+05  2.53456440E+03
  1.03184851E+06  2.24743442E+04  9.14863930E+05  6.40712560E+05  9.60832554E+04
  8.50294791E+04  6.71095195E+04  7.82881336E+05  0.00000000E+00  7.10513128E+04
  1.02073671E+06  5.18220260E+05  1.06722540E+03  5.48478208E+05  1.06013455E+04
  4.86295154E+05  3.30296908E+05  4.83404799E+04  4.26018274E+04  3.32551339E+04
  4.06752008E+05  0.00000000E+00  3.53289728E+04  5.42502534E+05  2.83662575E+05
  8.11497350E+05  1.94008400E+03  8.53193737E+05  1.78601506E+04  7.56463928E+05
  5.24402060E+05  7.80065389E+04  6.89371259E+04  5.42099106E+04  6.42430744E+05
  0.00000000E+00  5.74592031E+04  8.43969952E+05  4.46121722E+05  6.96551276E+05
  5.99897901E+05  1.11043914E+03  6.37913494E+05  1.16505362E+04  5.65590822E+05
  3.78641356E+05  5.47803235E+04  4.81820985E+04  3.74148715E+04  4.68011805E+05
  0.00000000E+00  3.98127143E+04  6.30925504E+05  3.27367585E+05  5.17507491E+05
  3.76435470E+05  6.89296946E+05  1.54161417E+03  7.26877088E+05  1.46820101E+04
  6.44468276E+05  4.42689091E+05  6.53734853E+04  5.77011015E+04  4.52250254E+04
  5.43595012E+05  0.00000000E+00  4.79847950E+04  7.18991463E+05  3.78207390E+05
  5.92438683E+05  4.37717034E+05  5.03152404E+05  6.43853349E+04  5.78352684E+01
  7.06006146E+04  8.84544347E+02  6.25963552E+04  3.81142515E+04  5.10916075E+03
  4.43530964E+03  3.32626784E+03  4.82692694E+04  0.00000000E+00  3.57795711E+03
  6.97998263E+04  3.44374471E+04  5.63013422E+04  3.86646725E+04  4.69084694E+04
  3.39005767E+03  8.64679274E+04  1.00417924E+02  9.38067954E+04  1.34169202E+03
  8.31715633E+04  5.23449021E+04  7.20681791E+03  6.28513799E+03  4.77162373E+03
  6.57310418E+04  0.00000000E+00  5.11317150E+03  9.27554496E+04  4.65732396E+04
  7.52549148E+04  5.27277400E+04  6.30298721E+04  4.88692384E+03  6.90855956E+03
  2.40872585E+02  2.48828086E-03  3.07630260E+02  4.94997704E-01  2.72753051E+02
  1.02912387E+02  9.22638396E+00  7.46295598E+00  4.62642987E+00  1.47660648E+02
  0.00000000E+00  5.28189878E+00  3.03553352E+02  1.16469347E+02  2.25372434E+02
  1.15813907E+02  1.74176419E+02  4.36660257E+00  8.53132435E+00  1.10360882E-05
%FLAG LENNARD_JONES_BCOEF
%FORMAT(5E16.8)
  8.01323529E+02  2.09604198E+01  9.37598976E-02  7.36907417E+02  2.06278363E+01
  6.75612247E+02  6.45756063E+01  7.57919667E-01  6.13981767E+01  3.56012899E+00
  6.53361429E+02  1.82891803E+01  5.99015525E+02  5.44372326E+01  5.31102864E+02
  6.77220874E+02  1.53505284E+01  6.26720080E+02  5.08951803E+01  5.55666448E+02
  5.64885984E+02  1.36131731E+02  2.59456373E+00  1.26919150E+02  9.41257003E+00
  1.12529845E+02  1.11805549E+02  2.17257828E+01  1.26451907E+02  2.33864085E+00
  1.18043746E+02  8.61880722E+00  1.04660679E+02  1.03580945E+02  2.00642027E+01
  1.85196588E+01  1.13252061E+02  1.93248820E+00  1.06076943E+02  7.42992380E+00
  9.40505980E+01  9.21192136E+01  1.76949863E+01  1.63092814E+01  1.43076527E+01
  7.50714425E+02  1.79702257E+01  6.93079947E+02  5.79323581E+01  6.14502845E+02
  6.29300710E+02  1.25287818E+02  1.16187983E+02  1.03606917E+02  6.99746810E+02
  0.00000000E+00  0.00000000E+00  0.00000000E+00  0.00000000E+00  0.00000000E+00
  0.00000000E+00  0.00000000E+00  0.00000000E+00  0.00000000E+00  0.00000000E+00
  0.00000000E+00  1.15327881E+02  2.01792524E+00  1.07908863E+02  7.65648470E+00
  9.56748258E+01  9.40124296E+01  1.81057616E+01  1.66953734E+01  1.46638650E+01
  1.05648788E+02  0.00000000E+00  1.50233639E+01  7.30206155E+02  2.04226110E+01
  6.69494459E+02  6.08139360E+01  5.93591333E+02  6.20970728E+02  1.25742895E+02
  1.16947855E+02  1.05087646E+02  6.86742760E+02  0.00000000E+00  1.06903901E+02
  6.63431737E+02  4.79881022E+02  1.20051375E+01  4.42179058E+02  3.78372494E+01
  3.92047541E+02  4.03897559E+02  8.07968711E+01  7.49896074E+01  6.70144433E+01
  4.48425641E+02  0.00000000E+00  6.82892701E+01  4.38146883E+02  2.87011518E+02
  6.48597119E+02  1.74825352E+01  5.95658566E+02  5.30440533E+01  5.28126496E+02
  5.49675335E+02  1.10856114E+02  1.03031170E+02  9.24130897E+01  6.08686716E+02
  0.00000000E+00  9.40636541E+01  5.90251928E+02  3.88758656E+02  5.24668528E+02
  6.15165511E+02  1.45902714E+01  5.68167388E+02  4.72594809E+01  5.03752097E+02
  5.15240418E+02  1.02477444E+02  9.50181887E+01  8.46911674E+01  5.73100668E+02
  0.00000000E+00  8.63723599E+01  5.62969425E+02  3.67361018E+02  4.98871431E+02
  4.69350655E+02  5.88797748E+02  1.53501807E+01  5.41546250E+02  4.73716383E+01
  4.80149098E+02  4.97456336E+02  9.99600502E+01  9.28465134E+01  8.31409640E+01
  5.51505564E+02  0.00000000E+00  8.46691831E+01  5.36620538E+02  3.52573684E+02
  4.76608379E+02  4.51916854E+02  4.32634597E+02  1.23751804E+02  2.04464126E+00
  1.16065835E+02  7.99614292E+00  1.02907011E+02  1.00379343E+02  1.92174397E+01
  1.77023375E+01  1.55059847E+01  1.13016701E+02  0.00000000E+00  1.58996004E+01
  1.14981426E+02  7.31636661E+01  1.01040256E+02  9.23664132E+01  9.08431526E+01
  1.67944276E+01  1.34516705E+02  2.52706841E+00  1.25489661E+02  9.23714573E+00
  1.11262422E+02  1.10338858E+02  2.14083478E+01  1.97659043E+01  1.74198525E+01
  1.23703833E+02  0.00000000E+00  1.78280753E+01  1.24325688E+02  7.98066064E+01
  1.09570372E+02  1.01173582E+02  9.87712192E+01  1.89134207E+01  2.10929191E+01
  5.21867651E+00  9.24653616E-03  5.28230309E+00  1.30416027E-01  4.68342836E+00
  3.59619399E+00  5.63047631E-01  5.00648264E-01  3.98705627E-01  4.30971229E+00
  0.00000000E+00  4.21184434E-01  5.22789272E+00  2.93355636E+00  4.40751799E+00
  3.48534600E+00  3.81654050E+00  4.15568027E-01  5.44840215E-01  4.55498033E-04
%FLAG BONDS_INC_HYDROGEN
%FORMAT(10I8)
      12      15       4      24      27       4      24      30       4      36
      39       8      42      45       8      48      51       8      54      57
       8      60      63       8       3       0       9       6       0       9
       9       0       9      69      72       4      81      84       4      81
      87       4      99     102       4      99     105       4      90      93
       4      90      96       4     114     117       4     126     129       4
     126     132       4     144     147       4     144     150       4     135
     138       4     135     141       4     111     108       9     156     153
       9     165     162       9     168     162       9     174     171       9
     177     171       9     186     189       4     198     201       4     198
     204       4     213     216       4     213     219       4     213     222
       4     225     228       4     225     231       4     225     234       4
     207     210       4     183     180       9     243     246       4     255
     258       4     255     261       4     273     276       4     273     279
       4     282     285       4     282     288       4     264     267       4
     264     270       4     240     237       9     294     291       9     297
     291       9     300     291       9     309     312       4     321     324
       4     321     327       4     336     339       4     336     342       4
     336     345       4     348     351       4     348     354       4     348
     357       4     330     333       4     306     303       9     366     369
       4     378     381       4     378     384       4     396     399       4
     396     402       4     405     408       4     405     411       4     387
     390       4     387     393       4     363     360       9     417     414
       9     420     414       9     423     414       9     432     435       4
     444     447       4     444     450       4     429     426       9     456
     453      15     465     468       4     477     480       4     477     483
       4     462     459       9     501     504       4     513     516       4
     513     519       4     513     522       4     498     495       9     531
     534       4     543     546       4     543     549       4     552     555
       4     552     558       4     528     525       9     576     579       4
     588     591       4     588     594       4     588     597       4     573
     570       9     606     609       4     618     621       4     645     648
       4     645     651       4     645     654       4     624     627       4
     624     630       4     633     636       4     633     639       4     633
     642       4     603     600       9     663     666       4     675     678
       4     675     681       4     675     684       4     660     657       9
     693     696       4     705     708       4     705     711       4     690
     687       9     717     714      15     726     729       4     738     741
       4     738     744       4     756     759       4     756     762       4
     747     750       4     747     753       4     723     720       9     768
     765       9     777     774       9     780     774       9     786     783
       9     789     783       9     798     801       4     810     813       4
     810     816       4     825     828       4     825     831       4     825
     834       4     837     840       4     837     843       4     837     846
       4     819     822       4     795     792       9     855     858       4
     867     870       4     867     873       4     852     849       9     891
     894       4     891     897       4     888     885       9     912     915
       4     924     927       4     924     930       4     909     906       9
     936     933      15     945     948       4     957     960       4     969
     972       4     969     975       4     969     978       4     942     939
       9     966     963      15     987     990       4     999    1002       4
     999    1005       4     999    1008       4     984     981       9    1017
    1020       4    1029    1032       4    1029    1035       4    1041    1044
       8    1059    1062       8    1077    1080       8    1065    1068       8
    1071    1074       8    1014    1011       9    1053    1050       9    1089
    1092       4    1101    1104       4    1113    1116       4    1113    1119
       4    1113    1122       4    1086    1083       9    1110    1107      15
    1131    1134       4    1143    1146       4    1143    1149       4    1128
    1125       9    1164    1215      30    1164    1218      30    1164    1221
      30    1173    1224      31    1176    1227      31    1191    1230      31
    1194    1233      31    1197    1236      31    1200    1239      31    1203
    1242      31    1209    1245      32    1212    1248      31
%FLAG BONDS_WITHOUT_HYDROGEN
%FORMAT(10I8)
      18      12       1      18      21       2      12      24       3      12
       0       5      24      33       6      36      48       7      36      33
       7      42      54       7      42      33       7      48      60       7
      54      60       7      18      66      10      75      69       1      75
      78       2      69      81       3      69      66      11      81      90
       3      99      90       3      99      66      11      75     108      10
     120     114       1     120     123       2     114     126       3     114
     108      11     126     135       3     144     135       3     144     153
      12     159     153      13     159     162      13     159     171      13
     120     180      10     192     186       1     192     195       2     186
     198       3     186     180      11     198     207       3     213     207
       3     225     207       3     192     237      10     249     243       1
     249     252       2     243     255       3     243     237      11     255
     264       3     273     282       3     273     264       3     282     291
       5     249     303      10     315     309       1     315     318       2
     309     321       3     309     303      11     321     330       3     336
     330       3     348     330       3     315     360      10     372     366
       1     372     375       2     366     378       3     366     360      11
     378     387       3     396     405       3     396     387       3     405
     414       5     372     426      10     438     432       1     438     441
       2     432     444       3     432     426      11     444     453      14
     438     459      10     471     465       1     471     474       2     465
     477       3     465     459      11     477     486       1     486     489
      16     486     492      16     471     495      10     507     501       1
     507     510       2     501     513       3     501     495      11     507
     525      10     537     531       1     537     540       2     531     543
       3     531     525      11     543     552       3     561     552       1
     561     564      16     561     567      16     537     570      10     582
     576       1     582     585       2     576     588       3     576     570
      11     582     600      10     612     606       1     612     615       2
     606     618       3     606     600      11     618     624       3     618
     633       3     645     624       3     612     657      10     669     663
       1     669     672       2     663     675       3     663     657      11
     669     687      10     699     693       1     699     702       2     693
     705       3     693     687      11     705     714      14     699     720
      10     732     726       1     732     735       2     726     738       3
     726     720      11     738     747       3     756     747       3     756
     765      12     771     765      13     771     774      13     771     783
      13     732     792      10     804     798       1     804     807       2
     798     810       3     798     792      11     810     819       3     825
     819       3     837     819       3     804     849      10     861     855
       1     861     864       2     855     867       3     855     849      11
     867     876       1     876     879      16     876     882      16     861
     885      10     900     891       1     900     903       2     891     885
      11     900     906      10     918     912       1     918     921       2
     912     924       3     912     906      11     924     933      14     918
     939      10     951     945       1     951     954       2     945     957
       3     945     939      11     957     969       3     957     963      14
     951     981      10     993     987       1     993     996       2     987
     999       3     987     981      11     993    1011      10    1023    1017
       1    1023    1026       2    1017    1029       3    1017    1011      11
    1029    1038      17    1041    1038      18    1041    1050      19    1047
    1056      20    1047    1059      21    1047    1038      22    1056    1065
       7    1056    1050      23    1059    1071       7    1077    1065       7
    1077    1071       7    1023    1083      10    1095    1089       1    1095
    1098       2    1089    1101       3    1089    1083      11    1101    1113
       3    1101    1107      14    1095    1125      10    1137    1131       1
    1137    1140      16    1137    1161      16    1131    1143       3    1131
    1125      11    1143    1152       1    1152    1155      16    1152    1158
      16    1167    1164      24    1170    1167      25    1173    1170      26
    1176    1173      26    1179    1176      26    1182    1179      27    1185
    1182      28    1188    1182      27    1191    1188      26    1194    1191
      26    1197    1194      26    1200    1197      26    1203    1200      26
    1203    1188      26    1206    1179      26    1209    1206      29    1212
    1206      26    1212    1170      26
%FLAG ANGLES_INC_HYDROGEN
%FORMAT(10I8)
       0      12      15       1       3       0       6       3       3       0
       9       3       3       0      12       1       6       0       9       3
       6       0      12       1       9       0      12       1      12      24
      27       1      12      24      30       1      15      12      18       1
      15      12      24       1      27      24      30       3      27      24
      33       1      30      24      33       1      33      36      39      11
      33      42      45      11      36      48      51      11      39      36
      48      11      42      54      57      11      45      42      54      11
      48      60      63      11      51      48      60      11      54      60
      63      11      57      54      60      11      66      69      72       1
      66      99     102       1      66      99     105       1      69      81
      84       1      69      81      87       1      72      69      75       1
      72      69      81       1      75     108     111      11      81      90
      93       1      81      90      96       1      84      81      87       3
      84      81      90       1      87      81      90       1      90      99
     102       1      90      99     105       1      93      90      96       3
      93      90      99       1      96      90      99       1     102      99
     105       3     108     114     117       1     111     108     114      17
     114     126     129       1     114     126     132       1     117     114
     120       1     117     114     126       1     120     180     183      11
     126     135     138       1     126     135     141       1     129     126
     132       3     129     126     135       1     132     126     135       1
     135     144     147       1     135     144     150       1     138     135
     141       3     138     135     144       1     141     135     144       1
     144     153     156      18     147     144     150       3     147     144
     153       1     150     144     153       1     156     153     159      11
     159     162     165      11     159     162     168      11     159     171
     174      11     159     171     177      11     165     162     168      20
     174     171     177      20     180     186     189       1     183     180
     186      17     186     198     201       1     186     198     204       1
     189     186     192       1     189     186     198       1     192     237
     240      11     198     207     210       1     201     198     204       3
     201     198     207       1     204     198     207       1     207     213
     216       1     207     213     219       1     207     213     222       1
     207     225     228       1     207     225     231       1     207     225
     234       1     210     207     213       1     210     207     225       1
     216     213     219       3     216     213     222       3     219     213
     222       3     228     225     231       3     228     225     234       3
     231     225     234       3     237     243     246       1     240     237
     243      17     243     255     258       1     243     255     261       1
     246     243     249       1     246     243     255       1     249     303
     306      11     255     264     267       1     255     264     270       1
     258     255     261       3     258     255     264       1     261     255
     264       1     264     273     276       1     264     273     279       1
     267     264     270       3     267     264     273       1     270     264
     273       1     273     282     285       1     273     282     288       1
     276     273     279       3     276     273     282       1     279     273
     282       1     282     291     294       1     282     291     297       1
     282     291     300       1     285     282     288       3     285     282
     291       1     288     282     291       1     294     291     297       3
     294     291     300       3     297     291     300       3     303     309
     312       1     306     303     309      17     309     321     324       1
     309     321     327       1     312     309     315       1     312     309
     321       1     315     360     363      11     321     330     333       1
     324     321     327       3     324     321     330       1     327     321
     330       1     330     336     339       1     330     336     342       1
     330     336     345       1     330     348     351       1     330     348
     354       1     330     348     357       1     333     330     336       1
     333     330     348       1     339     336     342       3     339     336
     345       3     342     336     345       3     351     348     354       3
     351     348     357       3     354     348     357       3     360     366
     369       1     363     360     366      17     366     378     381       1
     366     378     384       1     369     366     372       1     369     366
     378       1     372     426     429      11     378     387     390       1
     378     387     393       1     381     378     384       3     381     378
     387       1     384     378     387       1     387     396     399       1
     387     396     402       1     390     387     393       3     390     387
     396       1     393     387     396       1     396     405     408       1
     396     405     411       1     399     396     402       3     399     396
     405       1     402     396     405       1     405     414     417       1
     405     414     420       1     405     414     423       1     408     405
     411       3     408     405     414       1     411     405     414       1
     417     414     420       3     417     414     423       3     420     414
     423       3     426     432     435       1     429     426     432      17
     432     444     447       1     432     444     450       1     435     432
     438       1     435     432     444       1     438     459     462      11
     444     453     456      21     447     444     450       3     447     444
     453       1     450     444     453       1     459     465     468       1
     462     459     465      17     465     477     480       1     465     477
     483       1     468     465     471       1     468     465     477       1
     471     495     498      11     480     477     483       3     480     477
     486       1     483     477     486       1     495     501     504       1
     498     495     501      17     501     513     516       1     501     513
     519       1     501     513     522       1     504     501     507       1
     504     501     513       1     507     525     528      11     516     513
     519       3     516     513     522       3     519     513     522       3
     525     531     534       1     528     525     531      17     531     543
     546       1     531     543     549       1     534     531     537       1
     534     531     543       1     537     570     573      11     543     552
     555       1     543     552     558       1     546     543     549       3
     546     543     552       1     549     543     552       1     555     552
     558       3     555     552     561       1     558     552     561       1
     570     576     579       1     573     570     576      17     576     588
     591       1     576     588     594       1     576     588     597       1
     579     576     582       1     579     576     588       1     582     600
     603      11     591     588     594       3     591     588     597       3
     594     588     597       3     600     606     609       1     603     600
     606      17     606     618     621       1     609     606     612       1
     609     606     618       1     612     657     660      11     618     624
     627       1     618     624     630       1     618     633     636       1
     618     633     639       1     618     633     642       1     621     618
     624       1     621     618     633       1     624     645     648       1
     624     645     651       1     624     645     654       1     627     624
     630       3     627     624     645       1     630     624     645       1
     636     633     639       3     636     633     642       3     639     633
     642       3     648     645     651       3     648     645     654       3
     651     645     654       3     657     663     666       1     660     657
     663      17     663     675     678       1     663     675     681       1
     663     675     684       1     666     663     669       1     666     663
     675       1     669     687     690      11     678     675     681       3
     678     675     684       3     681     675     684       3     687     693
     696       1     690     687     693      17     693     705     708       1
     693     705     711       1     696     693     699       1     696     693
     705       1     699     720     723      11     705     714     717      21
     708     705     711       3     708     705     714       1     711     705
     714       1     720     726     729       1     723     720     726      17
     726     738     741       1     726     738     744       1     729     726
     732       1     729     726     738       1     732     792     795      11
     738     747     750       1     738     747     753       1     741     738
     744       3     741     738     747       1     744     738     747       1
     747     756     759       1     747     756     762       1     750     747
     753       3     750     747     756       1     753     747     756       1
     756     765     768      18     759     756     762       3     759     756
     765       1     762     756     765       1     768     765     771      11
     771     774     777      11     771     774     780      11     771     783
     786      11     771     783     789      11     777     774     780      20
     786     783     789      20     792     798     801       1     795     792
     798      17     798     810     813       1     798     810     816       1
     801     798     804       1     801     798     810       1     804     849
     852      11     810     819     822       1     813     810     816       3
     813     810     819       1     816     810     819       1     819     825
     828       1     819     825     831       1     819     825     834       1
     819     837     840       1     819     837     843       1     819     837
     846       1     822     819     825       1     822     819     837       1
     828     825     831       3     828     825     834       3     831     825
     834       3     840     837     843       3     840     837     846       3
     843     837     846       3     849     855     858       1     852     849
     855      17     855     867     870       1     855     867     873       1
     858     855     861       1     858     855     867       1     861     885
     888      11     870     867     873       3     870     867     876       1
     873     867     876       1     885     891     894       1     885     891
     897       1     888     885     891      17     894     891     897       3
     894     891     900       1     897     891     900       1     900     906
     909      11     906     912     915       1     909     906     912      17
     912     924     927       1     912     924     930       1     915     912
     918       1     915     912     924       1     918     939     942      11
     924     933     936      21     927     924     930       3     927     924
     933       1     930     924     933       1     939     945     948       1
     942     939     945      17     945     957     960       1     948     945
     951       1     948     945     957       1     951     981     984      11
     957     963     966      21     957     969     972       1     957     969
     975       1     957     969     978       1     960     957     963       1
     960     957     969       1     972     969     975       3     972     969
     978       3     975     969     978       3     981     987     990       1
     984     981     987      17     987     999    1002       1     987     999
    1005       1     987     999    1008       1     990     987     993       1
     990     987     999       1     993    1011    1014      11    1002     999
    1005       3    1002     999    1008       3    1005     999    1008       3
    1011    1017    1020       1    1014    1011    1017      17    1017    1029
    1032       1    1017    1029    1035       1    1020    1017    1023       1
    1020    1017    1029       1    1023    1083    1086      11    1032    1029
    1035       3    1032    1029    1038       1    1035    1029    1038       1
    1038    1041    1044      11    1041    1050    1053      11    1044    1041
    1050      11    1047    1059    1062      11    1053    1050    1056      35
    1056    1065    1068      11    1059    1071    1074      11    1062    1059
    1071      11    1065    1077    1080      11    1068    1065    1077      11
    1071    1077    1080      11    1074    1071    1077      11    1083    1089
    1092       1    1086    1083    1089      17    1089    1101    1104       1
    1092    1089    1095       1    1092    1089    1101       1    1095    1125
    1128      11    1101    1107    1110      21    1101    1113    1116       1
    1101    1113    1119       1    1101    1113    1122       1    1104    1101
    1107       1    1104    1101    1113       1    1116    1113    1119       3
    1116    1113    1122       3    1119    1113    1122       3    1125    1131
    1134       1    1128    1125    1131      17    1131    1143    1146       1
    1131    1143    1149       1    1134    1131    1137       1    1134    1131
    1143       1    1146    1143    1149       3    1146    1143    1152       1
    1149    1143    1152       1    1167    1164    1215      38    1167    1164
    1218      38    1167    1164    1221      38    1170    1173    1224      41
    1170    1212    1248      41    1173    1176    1227      41    1176    1173
    1224      41    1179    1176    1227      41    1188    1191    1230      41
    1188    1203    1242      41    1191    1194    1233      41    1194    1191
    1230      41    1194    1197    1236      41    1197    1194    1233      41
    1197    1200    1239      41    1200    1197    1236      41    1200    1203
    1242      41    1203    1200    1239      41    1206    1209    1245      46
    1206    1212    1248      41    1215    1164    1218      47    1215    1164
    1221      47    1218    1164    1221      47
%FLAG ANGLES_WITHOUT_HYDROGEN
%FORMAT(10I8)
       0      12      18       2       0      12      24       2      12      18
      21       4      12      18      66       5      12      24      33       6
      18      12      24       7      18      66      69       8      18      66
      99       8      21      18      66       9      24      33      36      10
      24      33      42      10      33      36      48      12      33      42
      54      12      36      33      42      12      36      48      60      12
      42      54      60      12      48      60      54      12      66      69
      75      13      66      69      81      14      66      99      90      14
      69      66      99      15      69      75      78       4      69      75
     108       5      69      81      90      16      75      69      81       7
      75     108     114       8      78      75     108       9      81      90
      99      16     108     114     120      13     108     114     126      14
     114     120     123       4     114     120     180       5     114     126
     135      16     120     114     126       7     120     180     186       8
     123     120     180       9     126     135     144      16     135     144
     153       2     144     153     159      19     153     159     162      10
     153     159     171      10     162     159     171      10     180     186
     192      13     180     186     198      14     186     192     195       4
     186     192     237       5     186     198     207      16     192     186
     198       7     192     237     243       8     195     192     237       9
     198     207     213      16     198     207     225      16     213     207
     225      16     237     243     249      13     237     243     255      14
     243     249     252       4     243     249     303       5     243     255
     264      16     249     243     255       7     249     303     309       8
     252     249     303       9     255     264     273      16     264     273
     282      16     273     282     291       2     303     309     315      13
     303     309     321      14     309     315     318       4     309     315
     360       5     309     321     330      16     315     309     321       7
     315     360     366       8     318     315     360       9     321     330
     336      16     321     330     348      16     336     330     348      16
     360     366     372      13     360     366     378      14     366     372
     375       4     366     372     426       5     366     378     387      16
     372     366     378       7     372     426     432       8     375     372
     426       9     378     387     396      16     387     396     405      16
     396     405     414       2     426     432     438      13     426     432
     444      14     432     438     441       4     432     438     459       5
     432     444     453       1     438     432     444       7     438     459
     465       8     441     438     459       9     459     465     471      13
     459     465     477      14     465     471     474       4     465     471
     495       5     465     477     486       7     471     465     477       7
     471     495     501       8     474     471     495       9     477     486
     489      22     477     486     492      22     489     486     492      23
     495     501     507      13     495     501     513      14     501     507
     510       4     501     507     525       5     507     501     513       7
     507     525     531       8     510     507     525       9     525     531
     537      13     525     531     543      14     531     537     540       4
     531     537     570       5     531     543     552      16     537     531
     543       7     537     570     576       8     540     537     570       9
     543     552     561       7     552     561     564      22     552     561
     567      22     564     561     567      23     570     576     582      13
     570     576     588      14     576     582     585       4     576     582
     600       5     582     576     588       7     582     600     606       8
     585     582     600       9     600     606     612      13     600     606
     618      14     606     612     615       4     606     612     657       5
     606     618     624      16     606     618     633      16     612     606
     618       7     612     657     663       8     615     612     657       9
     618     624     645      16     624     618     633      16     657     663
     669      13     657     663     675      14     663     669     672       4
     663     669     687       5     669     663     675       7     669     687
     693       8     672     669     687       9     687     693     699      13
     687     693     705      14     693     699     702       4     693     699
     720       5     693     705     714       1     699     693     705       7
     699     720     726       8     702     699     720       9     720     726
     732      13     720     726     738      14     726     732     735       4
     726     732     792       5     726     738     747      16     732     726
     738       7     732     792     798       8     735     732     792       9
     738     747     756      16     747     756     765       2     756     765
     771      19     765     771     774      10     765     771     783      10
     774     771     783      10     792     798     804      13     792     798
     810      14     798     804     807       4     798     804     849       5
     798     810     819      16     804     798     810       7     804     849
     855       8     807     804     849       9     810     819     825      16
     810     819     837      16     825     819     837      16     849     855
     861      13     849     855     867      14     855     861     864       4
     855     861     885       5     855     867     876       7     861     855
     867       7     861     885     891       8     864     861     885       9
     867     876     879      22     867     876     882      22     879     876
     882      23     885     891     900      13     891     900     903       4
     891     900     906       5     900     906     912       8     903     900
     906       9     906     912     918      13     906     912     924      14
     912     918     921       4     912     918     939       5     912     924
     933       1     918     912     924       7     918     939     945       8
     921     918     939       9     939     945     951      13     939     945
     957      14     945     951     954       4     945     951     981       5
     945     957     963       1     945     957     969      16     951     945
     957       7     951     981     987       8     954     951     981       9
     963     957     969       1     981     987     993      13     981     987
     999      14     987     993     996       4     987     993    1011       5
     993     987     999       7     993    1011    1017       8     996     993
    1011       9    1011    1017    1023      13    1011    1017    1029      14
    1017    1023    1026       4    1017    1023    1083       5    1017    1029
    1038      24    1023    1017    1029       7    1023    1083    1089       8
    1026    1023    1083       9    1029    1038    1041      25    1029    1038
    1047      26    1038    1041    1050      27    1038    1047    1056      28
    1038    1047    1059      29    1041    1038    1047      30    1041    1050
    1056      31    1047    1056    1050      32    1047    1056    1065      33
    1047    1059    1071      12    1050    1056    1065      34    1056    1047
    1059      36    1056    1065    1077      12    1059    1071    1077      12
    1065    1077    1071      12    1083    1089    1095      13    1083    1089
    1101      14    1089    1095    1098       4    1089    1095    1125       5
    1089    1101    1107       1    1089    1101    1113      16    1095    1089
    1101       7    1095    1125    1131       8    1098    1095    1125       9
    1107    1101    1113       1    1125    1131    1137      13    1125    1131
    1143      14    1131    1137    1140      22    1131    1137    1161      22
    1131    1143    1152       7    1137    1131    1143       7    1140    1137
    1161      23    1143    1152    1155      22    1143    1152    1158      22
    1155    1152    1158      23    1164    1167    1170      37    1167    1170
    1173      39    1167    1170    1212      39    1170    1173    1176      40
    1170    1212    1206      40    1173    1170    1212      40    1173    1176
    1179      40    1176    1179    1182      42    1176    1179    1206      40
    1179    1182    1185      43    1179    1182    1188      44    1179    1206
    1209      45    1179    1206    1212      40    1182    1179    1206      42
    1182    1188    1191      42    1182    1188    1203      42    1185    1182
    1188      43    1188    1191    1194      40    1188    1203    1200      40
    1191    1188    1203      40    1191    1194    1197      40    1194    1197
    1200      40    1197    1200    1203      40    1209    1206    1212      45
%FLAG DIHEDRALS_INC_HYDROGEN
%FORMAT(10I8)
       0      12      24      27      92       0      12      24      30      93
       3       0      12      15      95       3       0      12      18      96
       3       0      12      24      97       6       0      12      15      98
       6       0      12      18      99       6       0      12      24     100
       9       0      12      15     101       9       0      12      18     102
       9       0      12      24     103      15      12      24      27     108
      15      12      24      30     109      15      12      24      33     110
      18      12      24      27     111      18      12      24      30     112
      24      33      36      39     120      24      33      42      45     122
      33      36      48      51     124      33      42      54      57     126
      36      33      42      45     127      36      48      60      63     129
      39      36      33      42     130      39      36      48      51     131
      39      36      48      60     132      42      54      60      63     134
      45      42      54      57     135      45      42      54      60     136
      48      60      54      57     137      51      48      60      54     138
      51      48      60      63     139      57      54      60      63     140
      66      69      81      84     142      66      69      81      87     143
      66      99      90      93     144      66      99      90      96     145
      69      75     108     111     146      69      81      90      93     148
      69      81      90      96     149      72      69      75      78     150
      72      69     -75      78      20      72      69      81      84     151
      72      69      81      87     152      72      69      81      90     153
      75      69      81      84     154      75      69      81      87     155
      78      75     108     111     159      78      75    -108     111      10
      81      90      99     102     162      81      90      99     105     163
      84      81      90      93     164      84      81      90      96     165
      84      81      90      99     166      87      81      90      93     167
      87      81      90      96     168      87      81      90      99     169
      93      90      99     102     170      93      90      99     105     171
      96      90      99     102     172      96      90      99     105     173
     108     114     126     129     175     108     114     126     132     176
     114     120     180     183     178     114     126     135     138     180
     114     126     135     141     181     117     114     120     123     183
     117     114    -120     123      20     117     114     126     129     184
     117     114     126     132     185     117     114     126     135     186
     120     114     126     129     187     120     114     126     132     188
     123     120     180     183     192     123     120    -180     183      10
     126     135     144     147     195     126     135     144     150     196
     129     126     135     138     198     129     126     135     141     199
     129     126     135     144     200     132     126     135     138     201
     132     126     135     141     202     132     126     135     144     203
     138     135     144     147     204     138     135     144     150     205
     138     135     144     153     206     141     135     144     147     207
     141     135     144     150     208     141     135     144     153     209
     153     159     162     165     212     153     159     162     168     213
     153     159     171     174     214     153     159     171     177     215
     156     153     159     162     216     156     153     159     171     217
     162     159     171     174     218     162     159     171     177     219
     165     162     159     171     220     168     162     159     171     221
     180     186     198     201     223     180     186     198     204     224
     186     192     237     240     226     186     198     207     210     228
     189     186     192     195     231     189     186    -192     195      20
     189     186     198     201     232     189     186     198     204     233
     189     186     198     207     234     192     186     198     201     235
     192     186     198     204     236     195     192     237     240     240
     195     192    -237     240      10     198     207     213     216     243
     198     207     213     219     244     198     207     213     222     245
     198     207     225     228     246     198     207     225     231     247
     198     207     225     234     248     201     198     207     210     249
     201     198     207     213     250     201     198     207     225     251
     204     198     207     210     252     204     198     207     213     253
     204     198     207     225     254     210     207     213     216     255
     210     207     213     219     256     210     207     213     222     257
     210     207     225     228     258     210     207     225     231     259
     210     207     225     234     260     213     207     225     228     261
     213     207     225     231     262     213     207     225     234     263
     216     213     207     225     264     219     213     207     225     265
     222     213     207     225     266     237     243     255     258     268
     237     243     255     261     269     243     249     303     306     271
     243     255     264     267     273     243     255     264     270     274
     246     243     249     252     276     246     243    -249     252      20
     246     243     255     258     277     246     243     255     261     278
     246     243     255     264     279     249     243     255     258     280
     249     243     255     261     281     252     249     303     306     285
     252     249    -303     306      10     255     264     273     276     288
     255     264     273     279     289     258     255     264     267     291
     258     255     264     270     292     258     255     264     273     293
     261     255     264     267     294     261     255     264     270     295
     261     255     264     273     296     264     273     282     285     297
     264     273     282     288     298     267     264     273     276     300
     267     264     273     279     301     267     264     273     282     302
     270     264     273     276     303     270     264     273     279     304
     270     264     273     282     305     273     282     291     294     306
     273     282     291     297     307     273     282     291     300     308
     276     273     282     285     309     276     273     282     288     310
     276     273     282     291     311     279     273     282     285     312
     279     273     282     288     313     279     273     282     291     314
     285     282     291     294     315     285     282     291     297     316
     285     282     291     300     317     288     282     291     294     318
     288     282     291     297     319     288     282     291     300     320
     303     309     321     324     322     303     309     321     327     323
     309     315     360     363     325     309     321     330     333     327
     312     309     315     318     330     312     309    -315     318      20
     312     309     321     324     331     312     309     321     327     332
     312     309     321     330     333     315     309     321     324     334
     315     309     321     327     335     318     315     360     363     339
     318     315    -360     363      10     321     330     336     339     342
     321     330     336     342     343     321     330     336     345     344
     321     330     348     351     345     321     330     348     354     346
     321     330     348     357     347     324     321     330     333     348
     324     321     330     336     349     324     321     330     348     350
     327     321     330     333     351     327     321     330     336     352
     327     321     330     348     353     333     330     336     339     354
     333     330     336     342     355     333     330     336     345     356
     333     330     348     351     357     333     330     348     354     358
     333     330     348     357     359     336     330     348     351     360
     336     330     348     354     361     336     330     348     357     362
     339     336     330     348     363     342     336     330     348     364
     345     336     330     348     365     360     366     378     381     367
     360     366     378     384     368     366     372     426     429     370
     366     378     387     390     372     366     378     387     393     373
     369     366     372     375     375     369     366    -372     375      20
     369     366     378     381     376     369     366     378     384     377
     369     366     378     387     378     372     366     378     381     379
     372     366     378     384     380     375     372     426     429     384
     375     372    -426     429      10     378     387     396     399     387
     378     387     396     402     388     381     378     387     390     390
     381     378     387     393     391     381     378     387     396     392
     384     378     387     390     393     384     378     387     393     394
     384     378     387     396     395     387     396     405     408     396
     387     396     405     411     397     390     387     396     399     399
     390     387     396     402     400     390     387     396     405     401
     393     387     396     399     402     393     387     396     402     403
     393     387     396     405     404     396     405     414     417     405
     396     405     414     420     406     396     405     414     423     407
     399     396     405     408     408     399     396     405     411     409
     399     396     405     414     410     402     396     405     408     411
     402     396     405     411     412     402     396     405     414     413
     408     405     414     417     414     408     405     414     420     415
     408     405     414     423     416     411     405     414     417     417
     411     405     414     420     418     411     405     414     423     419
     426     432     444     447     421     426     432     444     450     422
     432     438     459     462     424     432     444     453     456     426
     432     444    -453     456      32     432     444    -453     456      33
     432     444    -453     456      34     435     432     438     441     427
     435     432    -438     441      20     435     432     444     447     428
     435     432     444     450     429     435     432     444     453     430
     438     432     444     447     431     438     432     444     450     432
     441     438     459     462     436     441     438    -459     462      10
     447     444     453     456     439     450     444     453     456     440
     459     465     477     480     442     459     465     477     483     443
     465     471     495     498     445     468     465     471     474     449
     468     465    -471     474      20     468     465     477     480     450
     468     465     477     483     451     468     465     477     486     452
     471     465     477     480     453     471     465     477     483     454
     474     471     495     498     458     474     471    -495     498      10
     495     501     513     516     462     495     501     513     519     463
     495     501     513     522     464     501     507     525     528     465
     504     501     507     510     467     504     501    -507     510      20
     504     501     513     516     468     504     501     513     519     469
     504     501     513     522     470     507     501     513     516     471
     507     501     513     519     472     507     501     513     522     473
     510     507     525     528     476     510     507    -525     528      10
     525     531     543     546     480     525     531     543     549     481
     531     537     570     573     483     531     543     552     555     485
     531     543     552     558     486     534     531     537     540     488
     534     531    -537     540      20     534     531     543     546     489
     534     531     543     549     490     534     531     543     552     491
     537     531     543     546     492     537     531     543     549     493
     540     537     570     573     497     540     537    -570     573      10
     546     543     552     555     502     546     543     552     558     503
     546     543     552     561     504     549     543     552     555     505
     549     543     552     558     506     549     543     552     561     507
     570     576     588     591     509     570     576     588     594     510
     570     576     588     597     511     576     582     600     603     512
     579     576     582     585     514     579     576    -582     585      20
     579     576     588     591     515     579     576     588     594     516
     579     576     588     597     517     582     576     588     591     518
     582     576     588     594     519     582     576     588     597     520
     585     582     600     603     523     585     582    -600     603      10
     600     606     618     621     527     606     612     657     660     530
     606     618     624     627     532     606     618     624     630     533
     606     618     633     636     535     606     618     633     639     536
     606     618     633     642     537     609     606     612     615     538
     609     606    -612     615      20     609     606     618     621     539
     609     606     618     624     540     609     606     618     633     541
     612     606     618     621     542     615     612     657     660     547
     615     612    -657     660      10     618     624     645     648     550
     618     624     645     651     551     618     624     645     654     552
     621     618     624     627     553     621     618     624     630     554
     621     618     624     645     555     621     618     633     636     556
     621     618     633     639     557     621     618     633     642     558
     624     618     633     636     559     624     618     633     639     560
     624     618     633     642     561     627     624     618     633     562
     627     624     645     648     563     627     624     645     651     564
     627     624     645     654     565     630     624     618     633     566
     630     624     645     648     567     630     624     645     651     568
     630     624     645     654     569     657     663     675     678     572
     657     663     675     681     573     657     663     675     684     574
     663     669     687     690     575     666     663     669     672     577
     666     663    -669     672      20     666     663     675     678     578
     666     663     675     681     579     666     663     675     684     580
     669     663     675     678     581     669     663     675     681     582
     669     663     675     684     583     672     669     687     690     586
     672     669    -687     690      10     687     693     705     708     590
     687     693     705     711     591     693     699     720     723     593
     693     705     714     717     595     693     705    -714     717      32
     693     705    -714     717      33     693     705    -714     717      34
     696     693     699     702     596     696     693    -699     702      20
     696     693     705     708     597     696     693     705     711     598
     696     693     705     714     599     699     693     705     708     600
     699     693     705     711     601     702     699     720     723     605
     702     699    -720     723      10     708     705     714     717     608
     711     705     714     717     609     720     726     738     741     611
     720     726     738     744     612     726     732     792     795     614
     726     738     747     750     616     726     738     747     753     617
     729     726     732     735     619     729     726    -732     735      20
     729     726     738     741     620     729     726     738     744     621
     729     726     738     747     622     732     726     738     741     623
     732     726     738     744     624     735     732     792     795     628
     735     732    -792     795      10     738     747     756     759     631
     738     747     756     762     632     741     738     747     750     634
     741     738     747     753     635     741     738     747     756     636
     744     738     747     750     637     744     738     747     753     638
     744     738     747     756     639     750     747     756     759     640
     750     747     756     762     641     750     747     756     765     642
     753     747     756     759     643     753     747     756     762     644
     753     747     756     765     645     765     771     774     777     648
     765     771     774     780     649     765     771     783     786     650
     765     771     783     789     651     768     765     771     774     652
     768     765     771     783     653     774     771     783     786     654
     774     771     783     789     655     777     774     771     783     656
     780     774     771     783     657     792     798     810     813     659
     792     798     810     816     660     798     804     849     852     662
     798     810     819     822     664     801     798     804     807     667
     801     798    -804     807      20     801     798     810     813     668
     801     798     810     816     669     801     798     810     819     670
     804     798     810     813     671     804     798     810     816     672
     807     804     849     852     676     807     804    -849     852      10
     810     819     825     828     679     810     819     825     831     680
     810     819     825     834     681     810     819     837     840     682
     810     819     837     843     683     810     819     837     846     684
     813     810     819     822     685     813     810     819     825     686
     813     810     819     837     687     816     810     819     822     688
     816     810     819     825     689     816     810     819     837     690
     822     819     825     828     691     822     819     825     831     692
     822     819     825     834     693     822     819     837     840     694
     822     819     837     843     695     822     819     837     846     696
     825     819     837     840     697     825     819     837     843     698
     825     819     837     846     699     828     825     819     837     700
     831     825     819     837     701     834     825     819     837     702
     849     855     867     870     704     849     855     867     873     705
     855     861     885     888     707     858     855     861     864     711
     858     855    -861     864      20     858     855     867     870     712
     858     855     867     873     713     858     855     867     876     714
     861     855     867     870     715     861     855     867     873     716
     864     861     885     888     719     864     861    -885     888      10
     891     900     906     909     723     894     891     900     903     725
     894     891    -900     903      20     897     891     900     903     726
     897     891    -900     903      20     903     900     906     909     729
     903     900    -906     909      10     906     912     924     927     732
     906     912     924     930     733     912     918     939     942     735
     912     924     933     936     737     912     924    -933     936      32
     912     924    -933     936      33     912     924    -933     936      34
     915     912     918     921     738     915     912    -918     921      20
     915     912     924     927     739     915     912     924     930     740
     915     912     924     933     741     918     912     924     927     742
     918     912     924     930     743     921     918     939     942     747
     921     918    -939     942      10     927     924     933     936     750
     930     924     933     936     751     939     945     957     960     753
     945     951     981     984     756     945     957     963     966     758
     945     957    -963     966      69     945     957    -963     966      70
     945     957    -963     966      71     945     957     969     972     759
     945     957     969     975     760     945     957     969     978     761
     948     945     951     954     762     948     945    -951     954      20
     948     945     957     960     763     948     945     957     963     764
     948     945     957     969     765     951     945     957     960     766
     954     951     981     984     771     954     951    -981     984      10
     960     957     963     966     774     960     957     969     972     775
     960     957     969     975     776     960     957     969     978     777
     963     957     969     972     778     963     957     969     975     779
     963     957     969     978     780     966     963     957     969     781
     966     963    -957     969      69     966     963    -957     969      74
     966     963    -957     969      75     981     987     999    1002     783
     981     987     999    1005     784     981     987     999    1008     785
     987     993    1011    1014     786     990     987     993     996     788
     990     987    -993     996      20     990     987     999    1002     789
     990     987     999    1005     790     990     987     999    1008     791
     993     987     999    1002     792     993     987     999    1005     793
     993     987     999    1008     794     996     993    1011    1014     797
     996     993   -1011    1014      10    1011    1017    1029    1032     801
    1011    1017    1029    1035     802    1017    1023    1083    1086     804
    1020    1017    1023    1026     807    1020    1017   -1023    1026      20
    1020    1017    1029    1032     808    1020    1017    1029    1035     809
    1020    1017    1029    1038     810    1023    1017    1029    1032     811
    1023    1017    1029    1035     812    1026    1023    1083    1086     816
    1026    1023   -1083    1086      10    1029    1038    1041    1044     819
    1038    1041    1050    1053     823    1038    1047    1059    1062     825
    1044    1041    1038    1047     829    1044    1041    1050    1053     830
    1044    1041    1050    1056     831    1047    1056    1050    1053     832
    1047    1056    1065    1068     833    1047    1059    1071    1074     835
    1050    1056    1065    1068     837    1053    1050    1056    1065     839
    1056    1047    1059    1062     840    1056    1065    1077    1080     842
    1059    1071    1077    1080     844    1062    1059    1071    1074     845
    1062    1059    1071    1077     846    1065    1077    1071    1074     847
    1068    1065    1077    1071     848    1068    1065    1077    1080     849
    1074    1071    1077    1080     850    1083    1089    1101    1104     852
    1089    1095    1125    1128     855    1089    1101    1107    1110     857
    1089    1101   -1107    1110      69    1089    1101   -1107    1110      70
    1089    1101   -1107    1110      71    1089    1101    1113    1116     858
    1089    1101    1113    1119     859    1089    1101    1113    1122     860
    1092    1089    1095    1098     861    1092    1089   -1095    1098      20
    1092    1089    1101    1104     862    1092    1089    1101    1107     863
    1092    1089    1101    1113     864    1095    1089    1101    1104     865
    1098    1095    1125    1128     870    1098    1095   -1125    1128      10
    1104    1101    1107    1110     873    1104    1101    1113    1116     874
    1104    1101    1113    1119     875    1104    1101    1113    1122     876
    1107    1101    1113    1116     877    1107    1101    1113    1119     878
    1107    1101    1113    1122     879    1110    1107    1101    1113     880
    1110    1107   -1101    1113      69    1110    1107   -1101    1113      74
    1110    1107   -1101    1113      75    1125    1131    1143    1146     881
    1125    1131    1143    1149     882    1134    1131    1143    1146     886
    1134    1131    1143    1149     887    1134    1131    1143    1152     888
    1137    1131    1143    1146     889    1137    1131    1143    1149     890
    1167    1170    1173    1224     895    1167    1170    1212    1248     897
    1170    1167    1164    1215     898    1170    1167    1164    1218     899
    1170    1167    1164    1221     900    1170    1173    1176    1227     902
    1173    1170    1212    1248     905    1179    1176    1173    1224     911
    1179    1206    1209    1245     914    1179    1206    1212    1248     915
    1182    1179    1176    1227     916    1182    1188    1191    1230     920
    1182    1188    1203    1242     922    1188    1191    1194    1233     928
    1188    1203    1200    1239     929    1191    1188    1203    1242     931
    1191    1194    1197    1236     932    1194    1197    1200    1239     934
    1197    1194    1191    1230     935    1197    1200    1203    1242     936
    1200    1197    1194    1233     937    1203    1188    1191    1230     938
    1203    1200    1197    1236     939    1206    1179    1176    1227     940
    1209    1206    1212    1248     941    1212    1170    1173    1224     942
    1212    1206    1209    1245     943    1224    1173    1176    1227     944
    1230    1191    1194    1233     945    1233    1194    1197    1236     946
    1236    1197    1200    1239     947    1239    1200    1203    1242     948
      33      48     -36     -39      91      33      54     -42     -45      91
      36      60     -48     -51      91      42      60     -54     -57      91
      48      54     -60     -63      91      75     114    -108    -111      91
     144     159    -153    -156      89     159     165    -162    -168      89
     159     174    -171    -177      89     120     186    -180    -183      91
     192     243    -237    -240      91     249     309    -303    -306      91
     315     366    -360    -363      91     372     432    -426    -429      91
     438     465    -459    -462      91     471     501    -495    -498      91
     507     531    -525    -528      91     537     576    -570    -573      91
     582     606    -600    -603      91     612     663    -657    -660      91
     669     693    -687    -690      91     699     726    -720    -723      91
     756     771    -765    -768      89     771     777    -774    -780      89
     771     786    -783    -789      89     732     798    -792    -795      91
     804     855    -849    -852      91     861     891    -885    -888      91
     900     912    -906    -909      91     918     945    -939    -942      91
     951     987    -981    -984      91     993    1017   -1011   -1014      91
    1038    1050   -1041   -1044      91    1041    1056   -1050   -1053      89
    1071    1047   -1059   -1062      91    1056    1077   -1065   -1068      91
    1059    1077   -1071   -1074      91    1065    1071   -1077   -1080      91
    1023    1089   -1083   -1086      91    1095    1131   -1125   -1128      91
    1170    1176   -1173   -1224      91    1173    1179   -1176   -1227      91
    1188    1194   -1191   -1230      91    1191    1197   -1194   -1233      91
    1194    1200   -1197   -1236      91    1197    1203   -1200   -1239      91
    1188    1200   -1203   -1242      91    1170    1206   -1212   -1248      91
      15      12      18      21     951      15      12      18      66     952
      18      66      69      72     953      18      66      99     102     954
      18      66      99     105     955      27      24      33      36     957
      27      24      33      42     958      30      24      33      36     959
      30      24      33      42     960      69      66      99     102     962
      69      66      99     105     963      72      69      66      99     964
      72      69      75     108     965      75     108     114     117     967
     111     108     114     117     970     111     108     114     120     971
     111     108     114     126     972     117     114     120     180     973
     120     180     186     189     974     135     144     153     156     976
     147     144     153     156     978     147     144     153     159     979
     150     144     153     156     980     150     144     153     159     981
     183     180     186     189     983     183     180     186     192     984
     183     180     186     198     985     189     186     192     237     986
     192     237     243     246     987     240     237     243     246     990
     240     237     243     249     991     240     237     243     255     992
     246     243     249     303     993     249     303     309     312     994
     306     303     309     312     997     306     303     309     315     998
     306     303     309     321     999     312     309     315     360    1000
     315     360     366     369    1001     363     360     366     369    1004
     363     360     366     372    1005     363     360     366     378    1006
     369     366     372     426    1007     372     426     432     435    1008
     429     426     432     435    1011     429     426     432     438    1012
     429     426     432     444    1013     435     432     438     459    1014
     438     459     465     468    1015     462     459     465     468    1018
     462     459     465     471    1019     462     459     465     477    1020
     468     465     471     495    1021     471     495     501     504    1022
     480     477     486     489    1024     480     477     486     492    1025
     483     477     486     489    1026     483     477     486     492    1027
     498     495     501     504    1029     498     495     501     507    1030
     498     495     501     513    1031     504     501     507     525    1032
     507     525     531     534    1033     528     525     531     534    1036
     528     525     531     537    1037     528     525     531     543    1038
     534     531     537     570    1039     537     570     576     579    1040
     555     552     561     564    1042     555     552     561     567    1043
     558     552     561     564    1044     558     552     561     567    1045
     573     570     576     579    1047     573     570     576     582    1048
     573     570     576     588    1049     579     576     582     600    1050
     582     600     606     609    1051     603     600     606     609    1054
     603     600     606     612    1055     603     600     606     618    1056
     609     606     612     657    1057     612     657     663     666    1058
     660     657     663     666    1061     660     657     663     669    1062
     660     657     663     675    1063     666     663     669     687    1064
     669     687     693     696    1065     690     687     693     696    1068
     690     687     693     699    1069     690     687     693     705    1070
     696     693     699     720    1071     699     720     726     729    1072
     723     720     726     729    1075     723     720     726     732    1076
     723     720     726     738    1077     729     726     732     792    1078
     732     792     798     801    1079     747     756     765     768    1081
     759     756     765     768    1083     759     756     765     771    1084
     762     756     765     768    1085     762     756     765     771    1086
     795     792     798     801    1088     795     792     798     804    1089
     795     792     798     810    1090     801     798     804     849    1091
     804     849     855     858    1092     852     849     855     858    1095
     852     849     855     861    1096     852     849     855     867    1097
     858     855     861     885    1098     861     885     891     894    1099
     861     885     891     897    1100     870     867     876     879    1102
     870     867     876     882    1103     873     867     876     879    1104
     873     867     876     882    1105     888     885     891     894    1107
     888     885     891     897    1108     888     885     891     900    1109
     894     891     900     906    1110     897     891     900     906    1111
     900     906     912     915    1112     909     906     912     915    1114
     909     906     912     918    1115     909     906     912     924    1116
     915     912     918     939    1117     918     939     945     948    1118
     942     939     945     948    1121     942     939     945     951    1122
     942     939     945     957    1123     948     945     951     981    1124
     951     981     987     990    1125     984     981     987     990    1128
     984     981     987     993    1129     984     981     987     999    1130
     990     987     993    1011    1131     993    1011    1017    1020    1132
    1014    1011    1017    1020    1135    1014    1011    1017    1023    1136
    1014    1011    1017    1029    1137    1020    1017    1023    1083    1139
    1023    1083    1089    1092    1140    1032    1029    1038    1041    1142
    1032    1029    1038    1047    1143    1035    1029    1038    1041    1144
    1035    1029    1038    1047    1145    1086    1083    1089    1092    1147
    1086    1083    1089    1095    1148    1086    1083    1089    1101    1149
    1092    1089    1095    1125    1150    1095    1125    1131    1134    1151
    1128    1125    1131    1134    1155    1128    1125    1131    1137    1156
    1128    1125    1131    1143    1157    1134    1131    1137    1140    1158
    1134    1131    1137    1161    1159    1146    1143    1152    1155    1162
    1146    1143    1152    1158    1163    1149    1143    1152    1155    1164
    1149    1143    1152    1158    1165
%FLAG DIHEDRALS_WITHOUT_HYDROGEN
%FORMAT(10I8)
       0      12      24      33      94       0      12     -24      33       2
       0      12     -24      33       3       0      12     -24      33       4
      12      18      66      69     104      12      18      66      99     105
      12      24      33      36     106      12      24     -33      36       5
      12      24      33      42     107      12      24     -33      42       5
      18      12      24      33     113      18      12     -24      33       2
      18      12     -24      33       6      18      12     -24      33       7
      18      66      69      75     114      18      66     -69      75       8
      18      66      69      81     115      18      66     -69      81       9
      18      66     -69      81      10      18      66      99      90     116
      18      66     -99      90      11      18      66     -99      90      10
      21      18      66      69     117      21      18      66      99     118
      24      12      18      66     119      24      12     -18      66      12
      24      12     -18      66      13      24      33      36      48     121
      24      33      42      54     123      33      36      48      60     125
      33      42     -54      60      14      36      33      42      54     128
      36      48     -60      54      14      42      33      36      48     133
      42      54     -60      48      14      66      69      75     108     141
      66      69     -75     108      15      66      69     -75     108      16
      66      69     -81      90       1      66      99     -90      81       1
      69      75     108     114     147      69      81     -90      99      17
      69      81     -90      99      18      69      81     -90      99      19
      75      69      81      90     156      75     108     114     120     157
      75     108    -114     120       8      75     108     114     126     158
      75     108    -114     126       9      75     108    -114     126      10
      78      75     108     114     160      81      69      75     108     161
      81      69     -75     108      12      81      69     -75     108      13
     108     114     120     180     174     108     114    -120     180      15
     108     114    -120     180      16     108     114     126     135     177
     114     120     180     186     179     114     126     135     144     182
     114     126    -135     144      18     114     126    -135     144      19
     120     114     126     135     189     120     180     186     192     190
     120     180    -186     192       8     120     180     186     198     191
     120     180    -186     198       9     120     180    -186     198      10
     123     120     180     186     193     126     114     120     180     194
     126     114    -120     180      12     126     114    -120     180      13
     126     135     144     153     197     144     153     159     162     210
     144     153     159     171     211     180     186     192     237     222
     180     186    -192     237      15     180     186    -192     237      16
     180     186     198     207     225     180     186    -198     207      21
     180     186    -198     207      22     180     186    -198     207      23
     186     192     237     243     227     186     198     207     213     229
     186     198    -207     213      24     186     198    -207     213      25
     186     198    -207     213      26     186     198     207     225     230
     186     198    -207     225      24     186     198    -207     225      25
     186     198    -207     225      26     192     186     198     207     237
     192     186    -198     207      21     192     186    -198     207      27
     192     186    -198     207      28     192     237     243     249     238
     192     237    -243     249       8     192     237     243     255     239
     192     237    -243     255       9     192     237    -243     255      10
     195     192     237     243     241     198     186     192     237     242
     198     186    -192     237      12     198     186    -192     237      13
     237     243     249     303     267     237     243    -249     303      15
     237     243    -249     303      16     237     243     255     264     270
     243     249     303     309     272     243     255     264     273     275
     243     255    -264     273      18     243     255    -264     273      19
     249     243     255     264     282     249     303     309     315     283
     249     303    -309     315       8     249     303     309     321     284
     249     303    -309     321       9     249     303    -309     321      10
     252     249     303     309     286     255     243     249     303     287
     255     243    -249     303      12     255     243    -249     303      13
     255     264     273     282     290     255     264    -273     282      18
     255     264    -273     282      19     264     273     282     291     299
     303     309     315     360     321     303     309    -315     360      15
     303     309    -315     360      16     303     309     321     330     324
     303     309    -321     330      21     303     309    -321     330      22
     303     309    -321     330      23     309     315     360     366     326
     309     321     330     336     328     309     321    -330     336      24
     309     321    -330     336      25     309     321    -330     336      26
     309     321     330     348     329     309     321    -330     348      24
     309     321    -330     348      25     309     321    -330     348      26
     315     309     321     330     336     315     309    -321     330      21
     315     309    -321     330      27     315     309    -321     330      28
     315     360     366     372     337     315     360    -366     372       8
     315     360     366     378     338     315     360    -366     378       9
     315     360    -366     378      10     318     315     360     366     340
     321     309     315     360     341     321     309    -315     360      12
     321     309    -315     360      13     360     366     372     426     366
     360     366    -372     426      15     360     366    -372     426      16
     360     366     378     387     369     366     372     426     432     371
     366     378     387     396     374     366     378    -387     396      18
     366     378    -387     396      19     372     366     378     387     381
     372     426     432     438     382     372     426    -432     438       8
     372     426     432     444     383     372     426    -432     444       9
     372     426    -432     444      10     375     372     426     432     385
     378     366     372     426     386     378     366    -372     426      12
     378     366    -372     426      13     378     387     396     405     389
     378     387    -396     405      18     378     387    -396     405      19
     387     396     405     414     398     426     432     438     459     420
     426     432    -438     459      15     426     432    -438     459      16
     426     432     444     453     423     426     432    -444     453      29
     426     432    -444     453      30     426     432    -444     453      31
     432     438     459     465     425     438     432     444     453     433
     438     432    -444     453      29     438     432    -444     453      35
     438     432    -444     453      36     438     459     465     471     434
     438     459    -465     471       8     438     459     465     477     435
     438     459    -465     477       9     438     459    -465     477      10
     441     438     459     465     437     444     432     438     459     438
     444     432    -438     459      12     444     432    -438     459      13
     459     465     471     495     441     459     465    -471     495      15
     459     465    -471     495      16     459     465     477     486     444
     459     465    -477     486      37     459     465    -477     486      38
     459     465    -477     486      39     465     471     495     501     446
     465     477     486     489     447     465     477    -486     489      40
     465     477     486     492     448     465     477    -486     492      40
     471     465     477     486     455     471     465    -477     486      37
     471     465    -477     486      41     471     465    -477     486      42
     471     495     501     507     456     471     495    -501     507       8
     471     495     501     513     457     471     495    -501     513       9
     471     495    -501     513      10     474     471     495     501     459
     477     465     471     495     460     477     465    -471     495      12
     477     465    -471     495      13     495     501     507     525     461
     495     501    -507     525      15     495     501    -507     525      16
     501     507     525     531     466     507     525     531     537     474
     507     525    -531     537       8     507     525     531     543     475
     507     525    -531     543       9     507     525    -531     543      10
     510     507     525     531     477     513     501     507     525     478
     513     501    -507     525      12     513     501    -507     525      13
     525     531     537     570     479     525     531    -537     570      15
     525     531    -537     570      16     525     531     543     552     482
     525     531    -543     552      21     525     531    -543     552      43
     525     531    -543     552      44     531     537     570     576     484
     531     543     552     561     487     531     543    -552     561      45
     531     543    -552     561      46     531     543    -552     561      47
     537     531     543     552     494     537     531    -543     552      21
     537     531    -543     552      48     537     531    -543     552      49
     537     570     576     582     495     537     570    -576     582       8
     537     570     576     588     496     537     570    -576     588       9
     537     570    -576     588      10     540     537     570     576     498
     543     531     537     570     499     543     531    -537     570      12
     543     531    -537     570      13     543     552     561     564     500
     543     552    -561     564      50     543     552     561     567     501
     543     552    -561     567      50     570     576     582     600     508
     570     576    -582     600      15     570     576    -582     600      16
     576     582     600     606     513     582     600     606     612     521
     582     600    -606     612       8     582     600     606     618     522
     582     600    -606     618       9     582     600    -606     618      10
     585     582     600     606     524     588     576     582     600     525
     588     576    -582     600      12     588     576    -582     600      13
     600     606     612     657     526     600     606    -612     657      15
     600     606    -612     657      16     600     606     618     624     528
     600     606    -618     624      51     600     606    -618     624      52
     600     606    -618     624      53     600     606     618     633     529
     600     606    -618     633      54     600     606    -618     633      55
     600     606    -618     633      56     606     612     657     663     531
     606     618     624     645     534     606     618    -624     645      57
     606     618    -624     645      58     606     618    -624     645      59
     612     606     618     624     543     612     606    -618     624      51
     612     606    -618     624      60     612     606    -618     624      61
     612     606     618     633     544     612     606    -618     633      54
     612     606    -618     633      62     612     606    -618     633      63
     612     657     663     669     545     612     657    -663     669       8
     612     657     663     675     546     612     657    -663     675       9
     612     657    -663     675      10     615     612     657     663     548
     618     606     612     657     549     618     606    -612     657      12
     618     606    -612     657      13     633     618     624     645     570
     633     618    -624     645      57     633     618    -624     645      64
     633     618    -624     645      65     657     663     669     687     571
     657     663    -669     687      15     657     663    -669     687      16
     663     669     687     693     576     669     687     693     699     584
     669     687    -693     699       8     669     687     693     705     585
     669     687    -693     705       9     669     687    -693     705      10
     672     669     687     693     587     675     663     669     687     588
     675     663    -669     687      12     675     663    -669     687      13
     687     693     699     720     589     687     693    -699     720      15
     687     693    -699     720      16     687     693     705     714     592
     687     693    -705     714      29     687     693    -705     714      30
     687     693    -705     714      31     693     699     720     726     594
     699     693     705     714     602     699     693    -705     714      29
     699     693    -705     714      35     699     693    -705     714      36
     699     720     726     732     603     699     720    -726     732       8
     699     720     726     738     604     699     720    -726     738       9
     699     720    -726     738      10     702     699     720     726     606
     705     693     699     720     607     705     693    -699     720      12
     705     693    -699     720      13     720     726     732     792     610
     720     726    -732     792      15     720     726    -732     792      16
     720     726     738     747     613     726     732     792     798     615
     726     738     747     756     618     726     738    -747     756      18
     726     738    -747     756      19     732     726     738     747     625
     732     792     798     804     626     732     792    -798     804       8
     732     792     798     810     627     732     792    -798     810       9
     732     792    -798     810      10     735     732     792     798     629
     738     726     732     792     630     738     726    -732     792      12
     738     726    -732     792      13     738     747     756     765     633
     756     765     771     774     646     756     765     771     783     647
     792     798     804     849     658     792     798    -804     849      15
     792     798    -804     849      16     792     798     810     819     661
     792     798    -810     819      21     792     798    -810     819      22
     792     798    -810     819      23     798     804     849     855     663
     798     810     819     825     665     798     810    -819     825      24
     798     810    -819     825      25     798     810    -819     825      26
     798     810     819     837     666     798     810    -819     837      24
     798     810    -819     837      25     798     810    -819     837      26
     804     798     810     819     673     804     798    -810     819      21
     804     798    -810     819      27     804     798    -810     819      28
     804     849     855     861     674     804     849    -855     861       8
     804     849     855     867     675     804     849    -855     867       9
     804     849    -855     867      10     807     804     849     855     677
     810     798     804     849     678     810     798    -804     849      12
     810     798    -804     849      13     849     855     861     885     703
     849     855    -861     885      15     849     855    -861     885      16
     849     855     867     876     706     849     855    -867     876      37
     849     855    -867     876      38     849     855    -867     876      39
     855     861     885     891     708     855     867     876     879     709
     855     867    -876     879      40     855     867     876     882     710
     855     867    -876     882      40     861     855     867     876     717
     861     855    -867     876      37     861     855    -867     876      41
     861     855    -867     876      42     861     885     891     900     718
     861     885    -891     900       8     864     861     885     891     720
     867     855     861     885     721     867     855    -861     885      12
     867     855    -861     885      13     885     891     900     906     722
     885     891    -900     906      15     885     891    -900     906      16
     891     900     906     912     724     900     906     912     918     727
     900     906    -912     918       8     900     906     912     924     728
     900     906    -912     924       9     900     906    -912     924      10
     903     900     906     912     730     906     912     918     939     731
     906     912    -918     939      15     906     912    -918     939      16
     906     912     924     933     734     906     912    -924     933      29
     906     912    -924     933      30     906     912    -924     933      31
     912     918     939     945     736     918     912     924     933     744
     918     912    -924     933      29     918     912    -924     933      35
     918     912    -924     933      36     918     939     945     951     745
     918     939    -945     951       8     918     939     945     957     746
     918     939    -945     957       9     918     939    -945     957      10
     921     918     939     945     748     924     912     918     939     749
     924     912    -918     939      12     924     912    -918     939      13
     939     945     951     981     752     939     945    -951     981      15
     939     945    -951     981      16     939     945     957     963     754
     939     945    -957     963      66     939     945    -957     963      67
     939     945    -957     963      68     939     945     957     969     755
     939     945    -957     969      54     939     945    -957     969      55
     939     945    -957     969      56     945     951     981     987     757
     951     945     957     963     767     951     945    -957     963      66
     951     945    -957     963      72     951     945    -957     963      73
     951     945     957     969     768     951     945    -957     969      54
     951     945    -957     969      62     951     945    -957     969      63
     951     981     987     993     769     951     981    -987     993       8
     951     981     987     999     770     951     981    -987     999       9
     951     981    -987     999      10     954     951     981     987     772
     957     945     951     981     773     957     945    -951     981      12
     957     945    -951     981      13     981     987     993    1011     782
     981     987    -993    1011      15     981     987    -993    1011      16
     987     993    1011    1017     787     993    1011    1017    1023     795
     993    1011   -1017    1023       8     993    1011    1017    1029     796
     993    1011   -1017    1029       9     993    1011   -1017    1029      10
     996     993    1011    1017     798     999     987     993    1011     799
     999     987    -993    1011      12     999     987    -993    1011      13
    1011    1017    1023    1083     800    1011    1017   -1023    1083      15
    1011    1017   -1023    1083      16    1011    1017    1029    1038     803
    1011    1017   -1029    1038      76    1011    1017   -1029    1038      77
    1011    1017   -1029    1038      78    1017    1023    1083    1089     805
    1017    1029    1038    1047     806    1017    1029   -1038    1047      79
    1017    1029   -1038    1047      80    1017    1029   -1038    1047      81
    1023    1017    1029    1038     813    1023    1017   -1029    1038      76
    1023    1017   -1029    1038      82    1023    1017   -1029    1038      83
    1023    1083    1089    1095     814    1023    1083   -1089    1095       8
    1023    1083    1089    1101     815    1023    1083   -1089    1101       9
    1023    1083   -1089    1101      10    1026    1023    1083    1089     817
    1029    1017    1023    1083     818    1029    1017   -1023    1083      12
    1029    1017   -1023    1083      13    1029    1038    1041    1050     820
    1029    1038    1047    1056     821    1029    1038    1047    1059     822
    1038    1041   -1050    1056      86    1038    1047   -1056    1050      87
    1038    1047    1056    1065     824    1038    1047    1059    1071     826
    1041    1038   -1047    1056      85    1041    1038    1047    1059     827
    1041    1050   -1056    1047      88    1041    1050    1056    1065     828
    1047    1038   -1041    1050      84    1047    1056    1065    1077     834
    1047    1059   -1071    1077      14    1050    1056    1047    1059     836
    1050    1056    1065    1077     838    1056    1047    1059    1071     841
    1056    1065   -1077    1071      14    1059    1047    1056    1065     843
    1059    1071   -1077    1065      14    1083    1089    1095    1125     851
    1083    1089   -1095    1125      15    1083    1089   -1095    1125      16
    1083    1089    1101    1107     853    1083    1089   -1101    1107      66
    1083    1089   -1101    1107      67    1083    1089   -1101    1107      68
    1083    1089    1101    1113     854    1083    1089   -1101    1113      54
    1083    1089   -1101    1113      55    1083    1089   -1101    1113      56
    1089    1095    1125    1131     856    1095    1089    1101    1107     866
    1095    1089   -1101    1107      66    1095    1089   -1101    1107      72
    1095    1089   -1101    1107      73    1095    1089    1101    1113     867
    1095    1089   -1101    1113      54    1095    1089   -1101    1113      62
    1095    1089   -1101    1113      63    1095    1125    1131    1137     868
    1095    1125   -1131    1137       8    1095    1125    1131    1143     869
    1095    1125   -1131    1143       9    1095    1125   -1131    1143      10
    1098    1095    1125    1131     871    1101    1089    1095    1125     872
    1101    1089   -1095    1125      12    1101    1089   -1095    1125      13
    1125    1131    1143    1152     883    1125    1131   -1143    1152      37
    1125    1131   -1143    1152      38    1125    1131   -1143    1152      39
    1131    1143    1152    1155     884    1131    1143   -1152    1155      40
    1131    1143    1152    1158     885    1131    1143   -1152    1158      40
    1137    1131    1143    1152     891    1137    1131   -1143    1152      37
    1137    1131   -1143    1152      41    1137    1131   -1143    1152      42
    1164    1167    1170    1173     892    1164    1167    1170    1212     893
    1167    1170    1173    1176     894    1167    1170    1212    1206     896
    1170    1173    1176    1179     901    1170    1212   -1206    1179      14
    1170    1212    1206    1209     903    1173    1170    1212    1206     904
    1173    1176    1179    1182     906    1173    1176   -1179    1206      14
    1176    1173    1170    1212     907    1176    1179    1182    1185     908
    1176    1179    1182    1188     909    1176    1179    1206    1209     910
    1176    1179   -1206    1212      14    1179    1182    1188    1191     912
    1179    1182    1188    1203     913    1182    1179    1206    1209     917
    1182    1179    1206    1212     918    1182    1188    1191    1194     919
    1182    1188    1203    1200     921    1185    1182    1179    1206     923
    1185    1182    1188    1191     924    1185    1182    1188    1203     925
    1188    1182    1179    1206     926    1188    1191    1194    1197     927
    1188    1203   -1200    1197      14    1191    1188    1203    1200     930
    1191    1194   -1197    1200      14    1194    1191    1188    1203     933
    1194    1197   -1200    1203      14      12      66     -18     -21      90
      36      42     -33     -24      91      18      99     -66     -69      89
      69     108     -75     -78      90     114     180    -120    -123      90
     153     162    -159    -171      90     186     237    -192    -195      90
     243     303    -249    -252      90     309     360    -315    -318      90
     366     426    -372    -375      90     432     459    -438    -441      90
     465     495    -471    -474      90     477     489    -486    -492      90
     501     525    -507    -510      90     531     570    -537    -540      90
     552     564    -561    -567      90     576     600    -582    -585      90
     606     657    -612    -615      90     663     687    -669    -672      90
     693     720    -699    -702      90     726     792    -732    -735      90
     765     774    -771    -783      90     798     849    -804    -807      90
     855     885    -861    -864      90     867     879    -876    -882      90
     891     906    -900    -903      90     912     939    -918    -921      90
     945     981    -951    -954      90     987    1011    -993    -996      90
    1017    1083   -1023   -1026      90    1047    1029   -1038   -1041      91
    1089    1125   -1095   -1098      90    1131    1140   -1137   -1161      90
    1143    1155   -1152   -1158      90    1173    1212   -1170   -1167      91
    1176    1182   -1179   -1206      91    1179    1188   -1182   -1185      90
    1182    1191   -1188   -1203      91    1179    1212   -1206   -1209      91
       0      12      18      21     949       0      12      18      66     950
      21      18      12      24     956      66      69      75      78     961
      75      69      66      99     966      78      75      69      81     968
     108     114     120     123     969     123     120     114     126     975
     135     144     153     159     977     180     186     192     195     982
     195     192     186     198     988     237     243     249     252     989
     252     249     243     255     995     303     309     315     318     996
     318     315     309     321    1002     360     366     372     375    1003
     375     372     366     378    1009     426     432     438     441    1010
     441     438     432     444    1016     459     465     471     474    1017
     474     471     465     477    1023     495     501     507     510    1028
     510     507     501     513    1034     525     531     537     540    1035
     540     537     531     543    1041     570     576     582     585    1046
     585     582     576     588    1052     600     606     612     615    1053
     615     612     606     618    1059     657     663     669     672    1060
     672     669     663     675    1066     687     693     699     702    1067
     702     699     693     705    1073     720     726     732     735    1074
     735     732     726     738    1080     747     756     765     771    1082
     792     798     804     807    1087     807     804     798     810    1093
     849     855     861     864    1094     864     861     855     867    1101
     885     891     900     903    1106     906     912     918     921    1113
     921     918     912     924    1119     939     945     951     954    1120
     954     951     945     957    1126     981     987     993     996    1127
     996     993     987     999    1133    1011    1017    1023    1026    1134
    1017    1029    1038    1041    1138    1026    1023    1017    1029    1141
    1083    1089    1095    1098    1146    1098    1095    1089    1101    1152
    1125    1131    1137    1140    1153    1125    1131    1137    1161    1154
    1140    1137    1131    1143    1160    1143    1131    1137    1161    1161
%FLAG EXCLUDED_ATOMS_LIST
%FORMAT(10I8)
       2       3       4       5       6       7       8       9      10      11
      12      23       3       4       5       6       7       9       4       5
       6       7       9       5       6       7       9       6       7       8
       9      10      11      12      13      15      23      24      34       7
       8       9      10      11      12      23       8       9      10      11
      12      23      24      25      26      28      31      34      35      36
       9      23      24      34      10      11      12      13      14      15
      16      17      19      23      11      12      13      15      12      13
      15      13      14      15      16      17      18      19      20      21
      14      15      16      17      18      19      21      22      15      17
      18      21      16      17      19      20      21      22      19      20
      21      18      19      20      21      22      19      21      22      20
      21      22      21      22      22       0      24      25      26      27
      28      29      30      31      32      33      34      35      36      37
      25      26      27      28      29      30      31      32      33      34
      35      36      37      38      39      26      27      28      29      30
      31      34      37      27      28      29      30      31      34      37
      38      39      40      41      43      28      37      38      39      29
      30      31      32      33      34      35      36      37      30      31
      32      33      34      31      32      33      34      32      33      34
      35      36      33      34      35      36      34      35      36      35
      36      36       0      38      39      40      41      42      43      44
      45      46      61      39      40      41      43      40      41      42
      43      44      45      46      47      48      49      61      62      63
      41      42      43      44      45      46      61      42      43      44
      45      46      61      62      63      64      65      67      43      61
      62      63      44      45      46      47      48      49      50      51
      52      61      45      46      47      48      49      46      47      48
      49      47      48      49      50      51      52      53      54      48
      49      50      51      52      49      50      51      52      50      51
      52      53      54      55      58      51      52      53      54      52
      53      54      53      54      55      56      57      58      59      60
      54      55      58      55      56      57      58      59      60      56
      57      58      59      60      57      58      58      59      60      60
       0      62      63      64      65      66      67      68      69      70
      80      63      64      65      67      64      65      66      67      68
      69      70      71      72      76      80      81      82      65      66
      67      68      69      70      80      66      67      68      69      70
      80      81      82      83      84      86      67      80      81      82
      68      69      70      71      72      73      74      75      76      77
      78      79      80      69      70      71      72      76      70      71
      72      76      71      72      73      74      75      76      77      78
      79      72      73      74      75      76      77      78      79      73
      74      75      76      77      78      79      74      75      76      75
      76      76      77      78      79      78      79      79       0      81
      82      83      84      85      86      87      88      89     102      82
      83      84      86      83      84      85      86      87      88      89
      90      91      92     102     103     104      84      85      86      87
      88      89     102      85      86      87      88      89     102     103
     104     105     106     108      86     102     103     104      87      88
      89      90      91      92      93      94      95     102      88      89
      90      91      92      89      90      91      92      90      91      92
      93      94      95      96      97      98      91      92      93      94
      95      92      93      94      95      93      94      95      96      97
      98      99     100     101      94      95      96      97      98      95
      96      97      98      96      97      98      99     100     101      97
      98      99     100     101      98      99     100     101      99     100
     101     100     101     101       0     103     104     105     106     107
     108     109     110     111     121     104     105     106     108     105
     106     107     108     109     110     111     112     113     117     121
     122     123     106     107     108     109     110     111     121     107
     108     109     110     111     121     122     123     124     125     127
     108     121     122     123     109     110     111     112     113     114
     115     116     117     118     119     120     121     110     111     112
     113     117     111     112     113     117     112     113     114     115
     116     117     118     119     120     113     114     115     116     117
     118     119     120     114     115     116     117     118     119     120
     115     116     117     116     117     117     118     119     120     119
     120     120       0     122     123     124     125     126     127     128
     129     130     143     123     124     125     127     124     125     126
     127     128     129     130     131     132     133     143     144     145
     125     126     127     128     129     130     143     126     127     128
     129     130     143     144     145     146     147     149     127     143
     144     145     128     129     130     131     132     133     134     135
     136     143     129     130     131     132     133     130     131     132
     133     131     132     133     134     135     136     137     138     139
     132     133     134     135     136     133     134     135     136     134
     135     136     137     138     139     140     141     142     135     136
     137     138     139     136     137     138     139     137     138     139
     140     141     142     138     139     140     141     142     139     140
     141     142     140     141     142     141     142     142       0     144
     145     146     147     148     149     150     151     152     154     145
     146     147     149     146     147     148     149     150     151     152
     153     154     155     156     147     148     149     150     151     152
     154     148     149     150     151     152     154     155     156     157
     158     160     149     154     155     156     150     151     152     153
     154     151     152     153     152     153     153       0     155     156
     157     158     159     160     161     162     163     166     156     157
     158     160     157     158     159     160     161     162     163     164
     165     166     167     168     158     159     160     161     162     163
     166     159     160     161     162     163     166     167     168     169
     170     172     160     166     167     168     161     162     163     164
     165     166     162     163     164     165     163     164     165     164
     165     165       0     167     168     169     170     171     172     173
     174     175     176     168     169     170     172     169     170     171
     172     173     174     175     176     177     178     170     171     172
     173     174     175     176     171     172     173     174     175     176
     177     178     179     180     182     172     176     177     178     173
     174     175     176     174     175     175       0     177     178     179
     180     181     182     183     184     185     191     178     179     180
     182     179     180     181     182     183     184     185     186     187
     188     191     192     193     180     181     182     183     184     185
     191     181     182     183     184     185     191     192     193     194
     195     197     182     191     192     193     183     184     185     186
     187     188     189     190     191     184     185     186     187     188
     185     186     187     188     186     187     188     189     190     187
     188     189     190     188     189     190     189     190     190       0
     192     193     194     195     196     197     198     199     200     201
     193     194     195     197     194     195     196     197     198     199
     200     201     202     203     195     196     197     198     199     200
     201     196     197     198     199     200     201     202     203     204
     205     207     197     201     202     203     198     199     200     201
     199     200     200       0     202     203     204     205     206     207
     208     209     212     220     203     204     205     207     204     205
     206     207     208     209     210     211     212     213     214     215
     216     220     221     222     205     206     207     208     209     212
     220     206     207     208     209     212     220     221     222     223
     224     226     207     220     221     222     208     209     210     211
     212     213     214     215     216     217     218     219     220     209
     210     211     212     213     214     215     216     210     211     212
     213     214     215     216     217     218     219     211     212     216
     217     218     219     212     216     217     218     219     213     214
     215     216     214     215     215       0     217     218     219     218
     219     219       0     221     222     223     224     225     226     227
     228     229     230     222     223     224     226     223     224     225
     226     227     228     229     230     231     232     224     225     226
     227     228     229     230     225     226     227     228     229     230
     231     232     233     234     236     226     230     231     232     227
     228     229     230     228     229     229       0     231     232     233
     234     235     236     237     238     239     241     232     233     234
     236     233     234     235     236     237     238     239     240     241
     242     243     234     235     236     237     238     239     241     235
     236     237     238     239     241     242     243     244     245     247
     236     241     242     243     237     238     239     240     241     238
     239     240     239     240     240       0     242     243     244     245
     246     247     248     249     250     265     243     244     245     247
     244     245     246     247     248     249     250     251     252     253
     265     266     267     245     246     247     248     249     250     265
     246     247     248     249     250     265     266     267     268     269
     271     247     265     266     267     248     249     250     251     252
     253     254     255     256     265     249     250     251     252     253
     250     251     252     253     251     252     253     254     255     256
     257     258     252     253     254     255     256     253     254     255
     256     254     255     256     257     258     259     262     255     256
     257     258     256     257     258     257     258     259     260     261
     262     263     264     258     259     262     259     260     261     262
     263     264     260     261     262     263     264     261     262     262
     263     264     264       0     266     267     268     269     270     271
     272     273     274     284     267     268     269     271     268     269
     270     271     272     273     274     275     276     280     284     285
     286     269     270     271     272     273     274     284     270     271
     272     273     274     284     285     286     287     288     290     271
     284     285     286     272     273     274     275     276     277     278
     279     280     281     282     283     284     273     274     275     276
     280     274     275     276     280     275     276     277     278     279
     280     281     282     283     276     277     278     279     280     281
     282     283     277     278     279     280     281     282     283     278
     279     280     279     280     280     281     282     283     282     283
     283       0     285     286     287     288     289     290     291     292
     293     296     286     287     288     290     287     288     289     290
     291     292     293     294     295     296     297     298     288     289
     290     291     292     293     296     289     290     291     292     293
     296     297     298     299     300     301     290     296     297     298
     291     292     293     294     295     296     292     293     294     295
     293     294     295     294     295     295       0     297     298     299
     300     301     302     303     298     299     300     301     299     300
     301     302     303     304     305     300     301     302     303     301
     302     303     302     303     304     305     306     307     309     303
     304     305     304     305     306     307     308     309     310     311
     312     314     305     306     307     309     306     307     308     309
     310     311     312     313     314     315     316     307     308     309
     310     311     312     314     308     309     310     311     312     314
     315     316     317     318     320     309     314     315     316     310
     311     312     313     314     311     312     313     312     313     313
       0     315     316     317     318     319     320     321     322     324
     328     316     317     318     320     317     318     319     320     321
     322     323     324     325     326     327     328     329     330     318
     319     320     321     322     324     328     319     320     321     322
     324     328     329     330     331     332     334     320     328     329
     330     321     322     323     324     325     326     327     328     322
     323     324     325     326     327     323     324     325     326     327
     324     325     326     327     326     327     327       0     329     330
     331     332     333     334     335     336     337     338     330     331
     332     334     331     332     333     334     335     336     337     338
     339     340     332     333     334     335     336     337     338     333
     334     335     336     337     338     339     340     341     342     344
     334     338     339     340     335     336     337     338     336     337
     337       0     339     340     341     342     343     344     345     346
     347     362     340     341     342     344     341     342     343     344
     345     346     347     348     350     362     363     364     342     343
     344     345     346     347     362     343     344     345     346     347
     362     363     364     365     366     368     344     362     363     364
     345     346     347     348     349     350     351     353     354     362
     346     347     348     350     347     348     350     348     349     350
     351     352     353     354     355     356     358     349     350     351
     352     353     354     356     350     351     352     353     351     352
     353     354     355     356     357     358     359     360     352     353
     354     356     357     360     353     356     354     355     356     357
     358     360     361     355     356     358     359     360     361     358
     359     360     357     358     359     360     361     358     360     361
     359     360     361     360     361     361       0     363     364     365
     366     367     368     369     370     372     376     364     365     366
     368     365     366     367     368     369     370     371     372     373
     374     375     376     377     378     366     367     368     369     370
     372     376     367     368     369     370     372     376     377     378
     379     380     382     368     376     377     378     369     370     371
     372     373     374     375     376     370     371     372     373     374
     375     371     372     373     374     375     372     373     374     375
     374     375     375       0     377     378     379     380     381     382
     383     384     385     388     378     379     380     382     379     380
     381     382     383     384     385     386     387     388     380     381
     382     383     384     385     388     381     382     383     384     385
     388     382     388     383     384     385     386     387     388     384
     385     386     387     385     386     387     386     387     387       0
       0     390     391     392     405     406     407     408     391     392
     393     403     405     406     407     408     409     417     392     393
     394     403     404     405     406     407     408     409     410     417
     393     394     395     403     405     409     410     417     394     395
     396     397     403     404     405     409     410     395     396     397
     398     402     403     404     405     409     410     416     417     396
     397     398     399     401     402     403     404     405     410     411
     415     397     398     402     403     398     399     400     401     402
     403     411     412     414     415     399     400     401     402     411
     412     413     415     400     401     402     411     412     413     414
     401     402     411     412     413     414     415     402     412     413
     414     415     411     413     414     415     404     405     410     416
     417     405     416     417     409     416     417     407     408     408
       0     410       0     412     413     414     415       0       0       0
%FLAG HBOND_ACOEF
%FORMAT(5E16.8)

%FLAG HBOND_BCOEF
%FORMAT(5E16.8)

%FLAG HBCUT
%FORMAT(5E16.8)

%FLAG AMBER_ATOM_TYPE
%FORMAT(20a4)
N1  H1  H1  H1  C1  H2  C2  O1  C1  H3  H3  C2  C2  H4  C2  H4  C2  H4  C2  H4  
C2  H4  N1  C1  H5  C2  O1  C1  H3  H3  C1  H3  H3  C1  H5  H5  N1  H1  C1  H5  
C2  O1  C1  H3  H3  C1  H3  H3  C1  H5  H5  N1  H1  C2  N1  H1  H1  N1  H1  H1  
N1  H1  C1  H5  C2  O1  C1  H3  H3  C1  H3  C1  H3  H3  H3  C1  H3  H3  H3  N1  
H1  C1  H5  C2  O1  C1  H3  H3  C1  H3  H3  C1  H3  H3  C1  H2  H2  N1  H1  H1  
H1  N1  H1  C1  H5  C2  O1  C1  H3  H3  C1  H3  C1  H3  H3  H3  C1  H3  H3  H3  
N1  H1  C1  H5  C2  O1  C1  H3  H3  C1  H3  H3  C1  H3  H3  C1  H2  H2  N1  H1  
H1  H1  N1  H1  C1  H5  C2  O1  C1  H5  H5  O2  H6  N1  H1  C1  H5  C2  O1  C1  
H3  H3  C2  O1  O1  N1  H1  C1  H5  C2  O1  C1  H3  H3  H3  N1  H1  C1  H5  C2  
O1  C1  H3  H3  C1  H3  H3  C2  O1  O1  N1  H1  C1  H5  C2  O1  C1  H3  H3  H3  
N1  H1  C1  H5  C2  O1  C1  H3  C1  H3  H3  C1  H3  H3  H3  C1  H3  H3  H3  N1  
H1  C1  H5  C2  O1  C1  H3  H3  H3  N1  H1  C1  H5  C2  O1  C1  H5  H5  O2  H6  
N1  H1  C1  H5  C2  O1  C1  H3  H3  C1  H3  H3  C1  H5  H5  N1  H1  C2  N1  H1  
H1  N1  H1  H1  N1  H1  C1  H5  C2  O1  C1  H3  H3  C1  H3  C1  H3  H3  H3  C1  
H3  H3  H3  N1  H1  C1  H5  C2  O1  C1  H3  H3  C2  O1  O1  N1  H1  C1  H5  H5  
C2  O1  N1  H1  C1  H5  C2  O1  C1  H5  H5  O2  H6  N1  H1  C1  H5  C2  O1  C1  
H5  O2  H6  C1  H3  H3  H3  N1  H1  C1  H5  C2  O1  C1  H3  H3  H3  N1  H1  C1  
H5  C2  O1  C1  H3  H3  C2  C2  H7  C2  N1  H1  C2  C2  H4  C2  H4  C2  H4  C2  
H4  N1  H1  C1  H5  C2  O1  C1  H5  O2  H6  C1  H3  H3  H3  N1  H1  C1  H5  C2  
O1  C1  H3  H3  C2  O1  O1  O1  C3  O3  C4  C4  C4  C4  C4  O4  C4  C4  C4  C4  
C4  C4  C4  O5  C4  H8  H8  H8  H9  H9  H9  H9  H9  H9  H9  H10 H9  
%FLAG TREE_CHAIN_CLASSIFICATION
%FORMAT(20a4)
BLA BLA BLA BLA BLA BLA BLA BLA BLA BLA BLA BLA BLA BLA BLA BLA BLA BLA BLA BLA 
BLA BLA BLA BLA BLA BLA BLA BLA BLA BLA BLA BLA BLA BLA BLA BLA BLA BLA BLA BLA 
BLA BLA BLA BLA BLA BLA BLA BLA BLA BLA BLA BLA BLA BLA BLA BLA BLA BLA BLA BLA 
BLA BLA BLA BLA BLA BLA BLA BLA BLA BLA BLA BLA BLA BLA BLA BLA BLA BLA BLA BLA 
BLA BLA BLA BLA BLA BLA BLA BLA BLA BLA BLA BLA BLA BLA BLA BLA BLA BLA BLA BLA 
BLA BLA BLA BLA BLA BLA BLA BLA BLA BLA BLA BLA BLA BLA BLA BLA BLA BLA BLA BLA 
BLA BLA BLA BLA BLA BLA BLA BLA BLA BLA BLA BLA BLA BLA BLA BLA BLA BLA BLA BLA 
BLA BLA BLA BLA BLA BLA BLA BLA BLA BLA BLA BLA BLA BLA BLA BLA BLA BLA BLA BLA 
BLA BLA BLA BLA BLA BLA BLA BLA BLA BLA BLA BLA BLA BLA BLA BLA BLA BLA BLA BLA 
BLA BLA BLA BLA BLA BLA BLA BLA BLA BLA BLA BLA BLA BLA BLA BLA BLA BLA BLA BLA 
BLA BLA BLA BLA BLA BLA BLA BLA BLA BLA BLA BLA BLA BLA BLA BLA BLA BLA BLA BLA 
BLA BLA BLA BLA BLA BLA BLA BLA BLA BLA BLA BLA BLA BLA BLA BLA BLA BLA BLA BLA 
BLA BLA BLA BLA BLA BLA BLA BLA BLA BLA BLA BLA BLA BLA BLA BLA BLA BLA BLA BLA 
BLA BLA BLA BLA BLA BLA BLA BLA BLA BLA BLA BLA BLA BLA BLA BLA BLA BLA BLA BLA 
BLA BLA BLA BLA BLA BLA BLA BLA BLA BLA BLA BLA BLA BLA BLA BLA BLA BLA BLA BLA 
BLA BLA BLA BLA BLA BLA BLA BLA BLA BLA BLA BLA BLA BLA BLA BLA BLA BLA BLA BLA 
BLA BLA BLA BLA BLA BLA BLA BLA BLA BLA BLA BLA BLA BLA BLA BLA BLA BLA BLA BLA 
BLA BLA BLA BLA BLA BLA BLA BLA BLA BLA BLA BLA BLA BLA BLA BLA BLA BLA BLA BLA 
BLA BLA BLA BLA BLA BLA BLA BLA BLA BLA BLA BLA BLA BLA BLA BLA BLA BLA BLA BLA 
BLA BLA BLA BLA BLA BLA BLA BLA BLA BLA BLA BLA BLA BLA BLA BLA BLA BLA BLA BLA 
BLA BLA BLA BLA BLA BLA BLA BLA BLA BLA BLA BLA BLA BLA BLA BLA BLA 
%FLAG JOIN_ARRAY
%FORMAT(10I8)
       0       0       0       0       0       0       0       0       0       0
       0       0       0       0       0       0       0       0       0       0
       0       0       0       0       0       0       0       0       0       0
       0       0       0       0       0       0       0       0       0       0
       0       0       0       0       0       0       0       0       0       0
       0       0       0       0       0       0       0       0       0       0
       0       0       0       0       0       0       0       0       0       0
       0       0       0       0       0       0       0       0       0       0
       0       0       0       0       0       0       0       0       0       0
       0       0       0       0       0       0       0       0       0       0
       0       0       0       0       0       0       0       0       0       0
       0       0       0       0       0       0       0       0       0       0
       0       0       0       0       0       0       0       0       0       0
       0       0       0       0       0       0       0       0       0       0
       0       0       0       0       0       0       0       0       0       0
       0       0       0       0       0       0       0       0       0       0
       0       0       0       0       0       0       0       0       0       0
       0       0       0       0       0       0       0       0       0       0
       0       0       0       0       0       0       0       0       0       0
       0       0       0       0       0       0       0       0       0       0
       0       0       0       0       0       0       0       0       0       0
       0       0       0       0       0       0       0       0       0       0
       0       0       0       0       0       0       0       0       0       0
       0       0       0       0       0       0       0       0       0       0
       0       0       0       0       0       0       0       0       0       0
       0       0       0       0       0       0       0       0       0       0
       0       0       0       0       0       0       0       0       0       0
       0       0       0       0       0       0       0       0       0       0
       0       0       0       0       0       0       0       0       0       0
       0       0       0       0       0       0       0       0       0       0
       0       0       0       0       0       0       0       0       0       0
       0       0       0       0       0       0       0       0       0       0
       0       0       0       0       0       0       0       0       0       0
       0       0       0       0       0       0       0       0       0       0
       0       0       0       0       0       0       0       0       0       0
       0       0       0       0       0       0       0       0       0       0
       0       0       0       0       0       0       0       0       0       0
       0       0       0       0       0       0       0       0       0       0
       0       0       0       0       0       0       0       0       0       0
       0       0       0       0       0       0       0       0       0       0
       0       0       0       0       0       0       0       0       0       0
       0       0       0       0       0       0       0
%FLAG IROTAT
%FORMAT(10I8)
       0       0       0       0       0       0       0       0       0       0
       0       0       0       0       0       0       0       0       0       0
       0       0       0       0       0       0       0       0       0       0
       0       0       0       0       0       0       0       0       0       0
       0       0       0       0       0       0       0       0       0       0
       0       0       0       0       0       0       0       0       0       0
       0       0       0       0       0       0       0       0       0       0
       0       0       0       0       0       0       0       0       0       0
       0       0       0       0       0       0       0       0       0       0
       0       0       0       0       0       0       0       0       0       0
       0       0       0       0       0       0       0       0       0       0
       0       0       0       0       0       0       0       0       0       0
       0       0       0       0       0       0       0       0       0       0
       0       0       0       0       0       0       0       0       0       0
       0       0       0       0       0       0       0       0       0       0
       0       0       0       0       0       0       0       0       0       0
       0       0       0       0       0       0       0       0       0       0
       0       0       0       0       0       0       0       0       0       0
       0       0       0       0       0       0       0       0       0       0
       0       0       0       0       0       0       0       0       0       0
       0       0       0       0       0       0       0       0       0       0
       0       0       0       0       0       0       0       0       0       0
       0       0       0       0       0       0       0       0       0       0
       0       0       0       0       0       0       0       0       0       0
       0       0       0       0       0       0       0       0       0       0
       0       0       0       0       0       0       0       0       0       0
       0       0       0       0       0       0       0       0       0       0
       0       0       0       0       0       0       0       0       0       0
       0       0       0       0       0       0       0       0       0       0
       0       0       0       0       0       0       0       0       0       0
       0       0       0       0       0       0       0       0       0       0
       0       0       0       0       0       0       0       0       0       0
       0       0       0       0       0       0       0       0       0       0
       0       0       0       0       0       0       0       0       0       0
       0       0       0       0       0       0       0       0       0       0
       0       0       0       0       0       0       0       0       0       0
       0       0       0       0       0       0       0       0       0       0
       0       0       0       0       0       0       0       0       0       0
       0       0       0       0       0       0       0       0       0       0
       0       0       0       0       0       0       0       0       0       0
       0       0       0       0       0       0       0       0       0       0
       0       0       0       0       0       0       0
%FLAG RADIUS_SET
%FORMAT(1a80)
H(N)-modified Bondi radii (mbondi2)                                             
%FLAG RADII
%FORMAT(5E16.8)
  1.55000000E+00  1.30000000E+00  1.30000000E+00  1.30000000E+00  1.70000000E+00
  1.20000000E+00  1.70000000E+00  1.50000000E+00  1.70000000E+00  1.20000000E+00
  1.20000000E+00  1.70000000E+00  1.70000000E+00  1.20000000E+00  1.70000000E+00
  1.20000000E+00  1.70000000E+00  1.20000000E+00  1.70000000E+00  1.20000000E+00
  1.70000000E+00  1.20000000E+00  1.55000000E+00  1.70000000E+00  1.20000000E+00
  1.70000000E+00  1.50000000E+00  1.70000000E+00  1.20000000E+00  1.20000000E+00
  1.70000000E+00  1.20000000E+00  1.20000000E+00  1.70000000E+00  1.20000000E+00
  1.20000000E+00  1.55000000E+00  1.30000000E+00  1.70000000E+00  1.20000000E+00
  1.70000000E+00  1.50000000E+00  1.70000000E+00  1.20000000E+00  1.20000000E+00
  1.70000000E+00  1.20000000E+00  1.20000000E+00  1.70000000E+00  1.20000000E+00
  1.20000000E+00  1.55000000E+00  1.30000000E+00  1.70000000E+00  1.55000000E+00
  1.30000000E+00  1.30000000E+00  1.55000000E+00  1.30000000E+00  1.30000000E+00
  1.55000000E+00  1.30000000E+00  1.70000000E+00  1.20000000E+00  1.70000000E+00
  1.50000000E+00  1.70000000E+00  1.20000000E+00  1.20000000E+00  1.70000000E+00
  1.20000000E+00  1.70000000E+00  1.20000000E+00  1.20000000E+00  1.20000000E+00
  1.70000000E+00  1.20000000E+00  1.20000000E+00  1.20000000E+00  1.55000000E+00
  1.30000000E+00  1.70000000E+00  1.20000000E+00  1.70000000E+00  1.50000000E+00
  1.70000000E+00  1.20000000E+00  1.20000000E+00  1.70000000E+00  1.20000000E+00
  1.20000000E+00  1.70000000E+00  1.20000000E+00  1.20000000E+00  1.70000000E+00
  1.20000000E+00  1.20000000E+00  1.55000000E+00  1.30000000E+00  1.30000000E+00
  1.30000000E+00  1.55000000E+00  1.30000000E+00  1.70000000E+00  1.20000000E+00
  1.70000000E+00  1.50000000E+00  1.70000000E+00  1.20000000E+00  1.20000000E+00
  1.70000000E+00  1.20000000E+00  1.70000000E+00  1.20000000E+00  1.20000000E+00
  1.20000000E+00  1.70000000E+00  1.20000000E+00  1.20000000E+00  1.20000000E+00
  1.55000000E+00  1.30000000E+00  1.70000000E+00  1.20000000E+00  1.70000000E+00
  1.50000000E+00  1.70000000E+00  1.20000000E+00  1.20000000E+00  1.70000000E+00
  1.20000000E+00  1.20000000E+00  1.70000000E+00  1.20000000E+00  1.20000000E+00
  1.70000000E+00  1.20000000E+00  1.20000000E+00  1.55000000E+00  1.30000000E+00
  1.30000000E+00  1.30000000E+00  1.55000000E+00  1.30000000E+00  1.70000000E+00
  1.20000000E+00  1.70000000E+00  1.50000000E+00  1.70000000E+00  1.20000000E+00
  1.20000000E+00  1.50000000E+00  1.20000000E+00  1.55000000E+00  1.30000000E+00
  1.70000000E+00  1.20000000E+00  1.70000000E+00  1.50000000E+00  1.70000000E+00
  1.20000000E+00  1.20000000E+00  1.70000000E+00  1.50000000E+00  1.50000000E+00
  1.55000000E+00  1.30000000E+00  1.70000000E+00  1.20000000E+00  1.70000000E+00
  1.50000000E+00  1.70000000E+00  1.20000000E+00  1.20000000E+00  1.20000000E+00
  1.55000000E+00  1.30000000E+00  1.70000000E+00  1.20000000E+00  1.70000000E+00
  1.50000000E+00  1.70000000E+00  1.20000000E+00  1.20000000E+00  1.70000000E+00
  1.20000000E+00  1.20000000E+00  1.70000000E+00  1.50000000E+00  1.50000000E+00
  1.55000000E+00  1.30000000E+00  1.70000000E+00  1.20000000E+00  1.70000000E+00
  1.50000000E+00  1.70000000E+00  1.20000000E+00  1.20000000E+00  1.20000000E+00
  1.55000000E+00  1.30000000E+00  1.70000000E+00  1.20000000E+00  1.70000000E+00
  1.50000000E+00  1.70000000E+00  1.20000000E+00  1.70000000E+00  1.20000000E+00
  1.20000000E+00  1.70000000E+00  1.20000000E+00  1.20000000E+00  1.20000000E+00
  1.70000000E+00  1.20000000E+00  1.20000000E+00  1.20000000E+00  1.55000000E+00
  1.30000000E+00  1.70000000E+00  1.20000000E+00  1.70000000E+00  1.50000000E+00
  1.70000000E+00  1.20000000E+00  1.20000000E+00  1.20000000E+00  1.55000000E+00
  1.30000000E+00  1.70000000E+00  1.20000000E+00  1.70000000E+00  1.50000000E+00
  1.70000000E+00  1.20000000E+00  1.20000000E+00  1.50000000E+00  1.20000000E+00
  1.55000000E+00  1.30000000E+00  1.70000000E+00  1.20000000E+00  1.70000000E+00
  1.50000000E+00  1.70000000E+00  1.20000000E+00  1.20000000E+00  1.70000000E+00
  1.20000000E+00  1.20000000E+00  1.70000000E+00  1.20000000E+00  1.20000000E+00
  1.55000000E+00  1.30000000E+00  1.70000000E+00  1.55000000E+00  1.30000000E+00
  1.30000000E+00  1.55000000E+00  1.30000000E+00  1.30000000E+00  1.55000000E+00
  1.30000000E+00  1.70000000E+00  1.20000000E+00  1.70000000E+00  1.50000000E+00
  1.70000000E+00  1.20000000E+00  1.20000000E+00  1.70000000E+00  1.20000000E+00
  1.70000000E+00  1.20000000E+00  1.20000000E+00  1.20000000E+00  1.70000000E+00
  1.20000000E+00  1.20000000E+00  1.20000000E+00  1.55000000E+00  1.30000000E+00
  1.70000000E+00  1.20000000E+00  1.70000000E+00  1.50000000E+00  1.70000000E+00
  1.20000000E+00  1.20000000E+00  1.70000000E+00  1.50000000E+00  1.50000000E+00
  1.55000000E+00  1.30000000E+00  1.70000000E+00  1.20000000E+00  1.20000000E+00
  1.70000000E+00  1.50000000E+00  1.55000000E+00  1.30000000E+00  1.70000000E+00
  1.20000000E+00  1.70000000E+00  1.50000000E+00  1.70000000E+00  1.20000000E+00
  1.20000000E+00  1.50000000E+00  1.20000000E+00  1.55000000E+00  1.30000000E+00
  1.70000000E+00  1.20000000E+00  1.70000000E+00  1.50000000E+00  1.70000000E+00
  1.20000000E+00  1.50000000E+00  1.20000000E+00  1.70000000E+00  1.20000000E+00
  1.20000000E+00  1.20000000E+00  1.55000000E+00  1.30000000E+00  1.70000000E+00
  1.20000000E+00  1.70000000E+00  1.50000000E+00  1.70000000E+00  1.20000000E+00
  1.20000000E+00  1.20000000E+00  1.55000000E+00  1.30000000E+00  1.70000000E+00
  1.20000000E+00  1.70000000E+00  1.50000000E+00  1.70000000E+00  1.20000000E+00
  1.20000000E+00  1.70000000E+00  1.70000000E+00  1.20000000E+00  1.70000000E+00
  1.55000000E+00  1.30000000E+00  1.70000000E+00  1.70000000E+00  1.20000000E+00
  1.70000000E+00  1.20000000E+00  1.70000000E+00  1.20000000E+00  1.70000000E+00
  1.20000000E+00  1.55000000E+00  1.30000000E+00  1.70000000E+00  1.20000000E+00
  1.70000000E+00  1.50000000E+00  1.70000000E+00  1.20000000E+00  1.50000000E+00
  1.20000000E+00  1.70000000E+00  1.20000000E+00  1.20000000E+00  1.20000000E+00
  1.55000000E+00  1.30000000E+00  1.70000000E+00  1.20000000E+00  1.70000000E+00
  1.50000000E+00  1.70000000E+00  1.20000000E+00  1.20000000E+00  1.70000000E+00
  1.50000000E+00  1.50000000E+00  1.50000000E+00  1.70000000E+00  1.50000000E+00
  1.70000000E+00  1.70000000E+00  1.70000000E+00  1.70000000E+00  1.70000000E+00
  1.50000000E+00  1.70000000E+00  1.70000000E+00  1.70000000E+00  1.70000000E+00
  1.70000000E+00  1.70000000E+00  1.70000000E+00  1.50000000E+00  1.70000000E+00
  1.20000000E+00  1.20000000E+00  1.20000000E+00  1.20000000E+00  1.20000000E+00
  1.20000000E+00  1.20000000E+00  1.20000000E+00  1.20000000E+00  1.20000000E+00
  1.20000000E+00  1.20000000E+00
%FLAG SCREEN
%FORMAT(5E16.8)
  7.90000000E-01  8.50000000E-01  8.50000000E-01  8.50000000E-01  7.20000000E-01
  8.50000000E-01  7.20000000E-01  8.50000000E-01  7.20000000E-01  8.50000000E-01
  8.50000000E-01  7.20000000E-01  7.20000000E-01  8.50000000E-01  7.20000000E-01
  8.50000000E-01  7.20000000E-01  8.50000000E-01  7.20000000E-01  8.50000000E-01
  7.20000000E-01  8.50000000E-01  7.90000000E-01  7.20000000E-01  8.50000000E-01
  7.20000000E-01  8.50000000E-01  7.20000000E-01  8.50000000E-01  8.50000000E-01
  7.20000000E-01  8.50000000E-01  8.50000000E-01  7.20000000E-01  8.50000000E-01
  8.50000000E-01  7.90000000E-01  8.50000000E-01  7.20000000E-01  8.50000000E-01
  7.20000000E-01  8.50000000E-01  7.20000000E-01  8.50000000E-01  8.50000000E-01
  7.20000000E-01  8.50000000E-01  8.50000000E-01  7.20000000E-01  8.50000000E-01
  8.50000000E-01  7.90000000E-01  8.50000000E-01  7.20000000E-01  7.90000000E-01
  8.50000000E-01  8.50000000E-01  7.90000000E-01  8.50000000E-01  8.50000000E-01
  7.90000000E-01  8.50000000E-01  7.20000000E-01  8.50000000E-01  7.20000000E-01
  8.50000000E-01  7.20000000E-01  8.50000000E-01  8.50000000E-01  7.20000000E-01
  8.50000000E-01  7.20000000E-01  8.50000000E-01  8.50000000E-01  8.50000000E-01
  7.20000000E-01  8.50000000E-01  8.50000000E-01  8.50000000E-01  7.90000000E-01
  8.50000000E-01  7.20000000E-01  8.50000000E-01  7.20000000E-01  8.50000000E-01
  7.20000000E-01  8.50000000E-01  8.50000000E-01  7.20000000E-01  8.50000000E-01
  8.50000000E-01  7.20000000E-01  8.50000000E-01  8.50000000E-01  7.20000000E-01
  8.50000000E-01  8.50000000E-01  7.90000000E-01  8.50000000E-01  8.50000000E-01
  8.50000000E-01  7.90000000E-01  8.50000000E-01  7.20000000E-01  8.50000000E-01
  7.20000000E-01  8.50000000E-01  7.20000000E-01  8.50000000E-01  8.50000000E-01
  7.20000000E-01  8.50000000E-01  7.20000000E-01  8.50000000E-01  8.50000000E-01
  8.50000000E-01  7.20000000E-01  8.50000000E-01  8.50000000E-01  8.50000000E-01
  7.90000000E-01  8.50000000E-01  7.20000000E-01  8.50000000E-01  7.20000000E-01
  8.50000000E-01  7.20000000E-01  8.50000000E-01  8.50000000E-01  7.20000000E-01
  8.50000000E-01  8.50000000E-01  7.20000000E-01  8.50000000E-01  8.50000000E-01
  7.20000000E-01  8.50000000E-01  8.50000000E-01  7.90000000E-01  8.50000000E-01
  8.50000000E-01  8.50000000E-01  7.90000000E-01  8.50000000E-01  7.20000000E-01
  8.50000000E-01  7.20000000E-01  8.50000000E-01  7.20000000E-01  8.50000000E-01
  8.50000000E-01  8.50000000E-01  8.50000000E-01  7.90000000E-01  8.50000000E-01
  7.20000000E-01  8.50000000E-01  7.20000000E-01  8.50000000E-01  7.20000000E-01
  8.50000000E-01  8.50000000E-01  7.20000000E-01  8.50000000E-01  8.50000000E-01
  7.90000000E-01  8.50000000E-01  7.20000000E-01  8.50000000E-01  7.20000000E-01
  8.50000000E-01  7.20000000E-01  8.50000000E-01  8.50000000E-01  8.50000000E-01
  7.90000000E-01  8.50000000E-01  7.20000000E-01  8.50000000E-01  7.20000000E-01
  8.50000000E-01  7.20000000E-01  8.50000000E-01  8.50000000E-01  7.20000000E-01
  8.50000000E-01  8.50000000E-01  7.20000000E-01  8.50000000E-01  8.50000000E-01
  7.90000000E-01  8.50000000E-01  7.20000000E-01  8.50000000E-01  7.20000000E-01
  8.50000000E-01  7.20000000E-01  8.50000000E-01  8.50000000E-01  8.50000000E-01
  7.90000000E-01  8.50000000E-01  7.20000000E-01  8.50000000E-01  7.20000000E-01
  8.50000000E-01  7.20000000E-01  8.50000000E-01  7.20000000E-01  8.50000000E-01
  8.50000000E-01  7.20000000E-01  8.50000000E-01  8.50000000E-01  8.50000000E-01
  7.20000000E-01  8.50000000E-01  8.50000000E-01  8.50000000E-01  7.90000000E-01
  8.50000000E-01  7.20000000E-01  8.50000000E-01  7.20000000E-01  8.50000000E-01
  7.20000000E-01  8.50000000E-01  8.50000000E-01  8.50000000E-01  7.90000000E-01
  8.50000000E-01  7.20000000E-01  8.50000000E-01  7.20000000E-01  8.50000000E-01
  7.20000000E-01  8.50000000E-01  8.50000000E-01  8.50000000E-01  8.50000000E-01
  7.90000000E-01  8.50000000E-01  7.20000000E-01  8.50000000E-01  7.20000000E-01
  8.50000000E-01  7.20000000E-01  8.50000000E-01  8.50000000E-01  7.20000000E-01
  8.50000000E-01  8.50000000E-01  7.20000000E-01  8.50000000E-01  8.50000000E-01
  7.90000000E-01  8.50000000E-01  7.20000000E-01  7.90000000E-01  8.50000000E-01
  8.50000000E-01  7.90000000E-01  8.50000000E-01  8.50000000E-01  7.90000000E-01
  8.50000000E-01  7.20000000E-01  8.50000000E-01  7.20000000E-01  8.50000000E-01
  7.20000000E-01  8.50000000E-01  8.50000000E-01  7.20000000E-01  8.50000000E-01
  7.20000000E-01  8.50000000E-01  8.50000000E-01  8.50000000E-01  7.20000000E-01
  8.50000000E-01  8.50000000E-01  8.50000000E-01  7.90000000E-01  8.50000000E-01
  7.20000000E-01  8.50000000E-01  7.20000000E-01  8.50000000E-01  7.20000000E-01
  8.50000000E-01  8.50000000E-01  7.20000000E-01  8.50000000E-01  8.50000000E-01
  7.90000000E-01  8.50000000E-01  7.20000000E-01  8.50000000E-01  8.50000000E-01
  7.20000000E-01  8.50000000E-01  7.90000000E-01  8.50000000E-01  7.20000000E-01
  8.50000000E-01  7.20000000E-01  8.50000000E-01  7.20000000E-01  8.50000000E-01
  8.50000000E-01  8.50000000E-01  8.50000000E-01  7.90000000E-01  8.50000000E-01
  7.20000000E-01  8.50000000E-01  7.20000000E-01  8.50000000E-01  7.20000000E-01
  8.50000000E-01  8.50000000E-01  8.50000000E-01  7.20000000E-01  8.50000000E-01
  8.50000000E-01  8.50000000E-01  7.90000000E-01  8.50000000E-01  7.20000000E-01
  8.50000000E-01  7.20000000E-01  8.50000000E-01  7.20000000E-01  8.50000000E-01
  8.50000000E-01  8.50000000E-01  7.90000000E-01  8.50000000E-01  7.20000000E-01
  8.50000000E-01  7.20000000E-01  8.50000000E-01  7.20000000E-01  8.50000000E-01
  8.50000000E-01  7.20000000E-01  7.20000000E-01  8.50000000E-01  7.20000000E-01
  7.90000000E-01  8.50000000E-01  7.20000000E-01  7.20000000E-01  8.50000000E-01
  7.20000000E-01  8.50000000E-01  7.20000000E-01  8.50000000E-01  7.20000000E-01
  8.50000000E-01  7.90000000E-01  8.50000000E-01  7.20000000E-01  8.50000000E-01
  7.20000000E-01  8.50000000E-01  7.20000000E-01  8.50000000E-01  8.50000000E-01
  8.50000000E-01  7.20000000E-01  8.50000000E-01  8.50000000E-01  8.50000000E-01
  7.90000000E-01  8.50000000E-01  7.20000000E-01  8.50000000E-01  7.20000000E-01
  8.50000000E-01  7.20000000E-01  8.50000000E-01  8.50000000E-01  7.20000000E-01
  8.50000000E-01  8.50000000E-01  8.50000000E-01  7.20000000E-01  8.50000000E-01
  7.20000000E-01  7.20000000E-01  7.20000000E-01  7.20000000E-01  7.20000000E-01
  8.50000000E-01  7.20000000E-01  7.20000000E-01  7.20000000E-01  7.20000000E-01
  7.20000000E-01  7.20000000E-01  7.20000000E-01  8.50000000E-01  7.20000000E-01
  8.50000000E-01  8.50000000E-01  8.50000000E-01  8.50000000E-01  8.50000000E-01
  8.50000000E-01  8.50000000E-01  8.50000000E-01  8.50000000E-01  8.50000000E-01
  8.50000000E-01  8.50000000E-01
%FLAG IPOL
%FORMAT(1I8)
       0
