
  649  0.0000000e+00
  -4.2970000  16.7620000  18.0750000  -4.9830000  17.2290000  18.6500000
  -4.6180000  16.8250000  17.1190000  -3.4220000  17.2660000  18.1040000
  -4.1090000  15.3680000  18.4530000  -3.9010000  15.3200000  19.5220000
  -2.9980000  14.7410000  17.5680000  -3.2510000  14.3640000  16.4360000
  -5.4540000  14.6510000  18.2390000  -5.6200000  14.7660000  17.1680000
  -6.2410000  15.1600000  18.7970000  -5.4250000  13.2720000  18.5150000
  -6.0230000  13.1760000  19.2610000  -1.8510000  14.4550000  18.1760000
  -1.5740000  14.7610000  19.0980000  -0.8470000  13.5880000  17.5200000
  -0.8620000  13.8650000  16.4660000  -1.3120000  12.1180000  17.4490000
  -1.0580000  11.3930000  16.4840000   0.6180000  13.9310000  17.9210000
   0.7260000  14.9960000  17.7120000   1.7710000  13.1600000  17.1930000
   1.6280000  12.1040000  17.4200000   2.7040000  13.5160000  17.6310000
   0.7100000  13.7180000  19.4720000   0.4260000  12.6750000  19.6120000
   0.1140000  14.4090000  20.0670000   1.7390000  13.7990000  19.8230000
   1.8130000  13.3880000  15.7010000   2.7390000  12.9620000  15.3150000
   0.9670000  12.8160000  15.3180000   1.6150000  14.4410000  15.5030000
  -2.0660000  11.6630000  18.4360000  -2.0450000  12.3420000  19.1830000
  -2.8100000  10.3840000  18.4960000  -2.0430000   9.6100000  18.4670000
  -3.7050000  10.1650000  17.2820000  -3.7860000   9.1020000  16.6830000
  -3.6410000  10.3420000  19.8250000  -2.9370000  10.5900000  20.6190000
  -4.4170000  11.1010000  19.7260000  -4.3230000   9.0710000  20.1200000
  -4.8910000   8.7550000  19.2450000  -3.5750000   8.2900000  20.2600000
  -5.2040000   9.3040000  21.3230000  -6.0030000   9.9350000  20.9330000
  -4.8330000  10.0110000  22.0640000  -5.7670000   7.9940000  21.8850000
  -4.9500000   7.2930000  22.0580000  -6.4030000   7.5880000  21.0990000
  -6.5960000   8.2230000  23.0780000  -6.3040000   9.0740000  23.5370000
  -7.5930000   8.2300000  22.9180000  -6.4800000   7.5410000  23.8140000
  -4.4740000  11.1780000  16.8810000  -4.4740000  12.0630000  17.3670000
  -5.2460000  11.1170000  15.6430000  -5.8090000  10.1840000  15.6730000
  -4.3160000  10.9920000  14.4450000  -4.3510000  10.0100000  13.6680000
  -6.0890000  12.3240000  15.4100000  -6.6640000  12.5180000  16.3150000
  -5.4440000  13.1920000  15.2710000  -6.8350000  12.3590000  14.2230000
  -7.6650000  11.9000000  14.3720000  -3.3400000  11.9180000  14.2950000
  -3.3060000  12.6250000  15.0150000  -2.4940000  12.1720000  13.1480000
  -3.1300000  12.2110000  12.2630000  -1.6030000  10.9510000  12.8770000
  -1.5240000  10.5340000  11.7140000  -1.7170000  13.4980000  13.2080000
  -1.1880000  13.5250000  14.1600000  -2.6080000  14.7490000  13.1760000
  -2.8400000  15.0750000  12.1620000  -3.4920000  14.5260000  13.7730000
  -0.6520000  13.7740000  12.1900000  -0.0720000  12.8520000  12.2350000
  -0.0620000  14.6150000  12.5540000  -1.0080000  13.9520000  11.1760000
  -2.0760000  16.0570000  13.7870000  -1.3750000  16.5110000  13.0880000
  -2.9160000  16.7450000  13.8870000  -1.5790000  15.8880000  14.7420000
  -1.1290000  10.2480000  13.8890000  -1.4600000  10.5340000  14.8000000
  -0.3690000   8.9880000  13.6760000   0.4510000   9.1640000  12.9800000
  -1.2240000   7.8190000  13.0750000  -0.7110000   7.0310000  12.2510000
   0.2200000   8.6560000  15.0670000   0.3900000   9.6070000  15.5710000
  -0.4810000   8.0960000  15.6860000   1.5930000   7.8250000  14.8100000
   2.2870000   8.3840000  14.1810000   1.3900000   6.8910000  14.2860000
   2.1850000   7.4150000  16.1820000   1.5320000   6.7080000  16.6930000
   3.1570000   6.9640000  15.9840000   2.3680000   8.5560000  17.1830000
   1.4500000   9.1000000  17.4060000   2.9590000   9.2880000  16.6320000
   2.9680000   8.0840000  18.4640000   3.4300000   8.8450000  18.9410000
   2.2890000   7.8340000  19.1690000   3.5740000   7.2790000  18.3960000
  -2.4850000   7.7850000  13.4400000  -2.8130000   8.4350000  14.1390000
  -3.4620000   6.8390000  12.8240000  -2.9310000   5.9120000  12.6090000
  -3.7520000   7.2210000  11.3550000  -3.5050000   6.4400000  10.4580000
  -4.7480000   6.5140000  13.6500000  -5.4980000   5.8850000  13.1710000
  -5.1900000   7.5030000  13.7730000  -4.5160000   5.9450000  15.0790000
  -3.5180000   5.4190000  15.4350000  -5.3910000   6.1680000  16.0040000
  -5.2460000   5.9290000  16.9750000  -6.0660000   6.9060000  15.8680000
  -3.9430000   8.5280000  11.1410000  -4.1770000   9.0090000  11.9980000
  -4.0790000   9.1540000   9.8030000  -5.0280000   8.7740000   9.4240000
  -3.0220000   8.8670000   8.7470000  -3.3020000   8.8480000   7.5490000
  -4.2680000  10.6570000  10.0450000  -4.7710000  10.9160000  10.9770000
  -3.2560000  11.0610000  10.0650000  -5.0900000  11.3710000   8.9300000
  -4.7680000  11.0030000   7.9560000  -6.5580000  10.9860000   9.1580000
  -6.7880000   9.9260000   9.0580000  -6.9020000  11.4080000  10.1030000
  -7.1880000  11.5500000   8.4700000  -5.0020000  12.9330000   8.9390000
  -5.7020000  13.3370000   8.2070000  -5.1430000  13.3950000   9.9160000
  -4.0200000  13.1750000   8.5330000  -1.7350000   8.6730000   9.1560000
  -1.6590000   8.8690000  10.1440000  -0.6190000   8.2780000   8.3470000
  -0.5490000   8.8520000   7.4220000  -0.6350000   6.7740000   8.0080000
  -0.5340000   6.4580000   6.8410000   0.6870000   8.6850000   9.0840000
   0.6390000   9.6450000   9.5990000   0.8890000   7.9840000   9.8930000
   1.9160000   8.6870000   8.1900000   1.8990000   9.6560000   7.6920000
   1.8660000   7.8850000   7.4530000   3.2830000   8.5920000   8.7450000
   3.3790000   7.6230000   9.2350000   3.8610000   8.5200000   7.8230000
   3.7450000   9.7020000   9.5340000   4.2090000  10.4670000   9.0660000
   3.7470000   9.8290000  10.8730000   3.3370000   8.9240000  11.7130000
   3.4990000   9.0230000  12.7050000   3.0340000   7.9970000  11.4510000
   4.2700000  10.9360000  11.2700000   4.6790000  11.6150000  10.6440000
   4.3000000  11.2190000  12.2400000  -0.9460000   5.9280000   8.9710000
  -1.1070000   6.3910000   9.8540000  -1.0120000   4.4510000   8.8860000
   0.0050000   4.0690000   8.7970000  -1.9110000   3.9760000   7.7440000
  -1.5260000   3.1030000   7.0030000  -1.5470000   3.9390000  10.2830000
  -1.2250000   4.6430000  11.0500000  -2.6280000   3.9150000  10.4150000
  -1.1220000   2.4660000  10.6240000  -0.0590000   2.3660000  10.4090000
  -1.2550000   2.2980000  11.6930000  -2.0430000   1.3950000   9.9620000
  -2.2280000   1.5460000   8.8980000  -3.0020000   1.3140000  10.4740000
  -1.3090000   0.0350000  10.0140000  -0.9310000  -0.2840000  10.9860000
  -0.4360000   0.1690000   9.3750000  -2.1480000  -1.0160000   9.3840000
  -1.9230000  -1.0980000   8.4030000  -1.8600000  -1.9390000   9.6740000
  -3.1450000  -0.8680000   9.3220000  -3.0230000   4.6960000   7.5860000
  -3.1540000   5.4370000   8.2590000  -3.8840000   4.5790000   6.3850000
  -4.1930000   3.5410000   6.5110000  -3.1430000   4.7150000   5.0480000
  -3.4890000   3.8800000   4.1910000  -5.1170000   5.4360000   6.3880000
  -4.7750000   6.4700000   6.3590000  -5.6760000   5.2260000   5.4760000
  -6.0290000   5.2480000   7.6070000  -6.2090000   4.1130000   8.0360000
  -6.7890000   6.1890000   7.9380000  -2.2550000   5.7000000   4.8620000
  -2.0650000   6.2970000   5.6540000  -1.4620000   5.9240000   3.6480000
  -2.1250000   5.9090000   2.7830000  -0.3820000   4.8390000   3.5030000
  -0.2060000   4.3330000   2.4490000  -0.8910000   7.3800000   3.7000000
  -0.1550000   7.2780000   2.9020000  -0.5590000   7.6310000   4.7080000
  -1.9750000   8.3660000   3.4090000  -2.5140000   9.2560000   4.2980000
  -2.3410000   9.2820000   5.3630000  -2.5570000   8.7090000   2.1190000
  -3.5210000  10.0090000   3.6620000  -4.2060000  10.6430000   4.0470000
  -3.6300000   9.6470000   2.3590000  -2.4490000   8.1360000   0.8190000
  -1.7610000   7.3130000   0.6960000  -4.4730000  10.0850000   1.3180000
  -5.2360000  10.8250000   1.5080000  -3.3170000   8.6230000  -0.2700000
  -3.1570000   8.2310000  -1.2640000  -4.3040000   9.5670000   0.0150000
  -4.8870000   9.9570000  -0.8060000   0.3420000   4.4990000   4.5890000
   0.2010000   5.0350000   5.4340000   1.3820000   3.4320000   4.5680000
   2.0300000   3.6040000   3.7090000   0.8160000   2.0610000   4.2670000
   1.3960000   1.2650000   3.4960000   2.3100000   3.4170000   5.8010000
   1.6710000   3.1950000   6.6550000   2.9950000   4.7740000   6.0310000
   3.7730000   4.9280000   5.2820000   2.2180000   5.5300000   5.9200000
   3.4420000   2.3250000   5.7060000   3.9640000   2.3120000   4.7490000
   3.1340000   1.3130000   5.9690000   4.1940000   2.5270000   6.4690000
   3.4020000   4.9500000   7.4880000   3.7820000   5.9540000   7.6780000
   2.5060000   4.8180000   8.0940000   4.1420000   4.1980000   7.7620000
  -0.4500000   1.7670000   4.6340000  -0.9650000   2.3300000   5.2960000
  -1.2140000   0.6070000   4.0890000  -0.6490000  -0.3230000   4.1510000
  -1.4790000   0.6910000   2.5560000  -1.2070000  -0.2630000   1.7570000
  -2.5180000   0.3840000   4.8860000  -3.2540000  -0.1830000   4.3160000
  -2.8980000   1.3580000   5.1930000  -2.4400000  -0.3270000   6.2290000
  -1.3240000  -0.6670000   6.7510000  -3.5150000  -0.5780000   6.8660000
  -1.9690000   1.8820000   2.0710000  -2.2450000   2.5830000   2.7430000
  -2.3360000   2.2190000   0.6830000  -2.9890000   1.4760000   0.2250000
  -1.1700000   2.1300000  -0.2980000  -1.3010000   2.0230000  -1.5420000
  -2.9910000   3.5740000   0.6550000  -2.8040000   4.0650000  -0.3000000
  -2.4960000   4.2600000   1.3420000  -4.5090000   3.5140000   0.9540000
  -4.7630000   3.1880000   1.9620000  -4.9620000   2.8500000   0.2170000
  -5.1420000   4.9340000   0.8330000  -5.7230000   4.8840000  -0.0880000
  -4.3460000   5.6760000   0.8980000  -5.9910000   5.3380000   1.9960000
  -6.0070000   6.4280000   2.0320000  -5.5340000   5.0760000   2.9510000
  -7.3880000   4.8510000   1.8610000  -7.9450000   5.2970000   1.1450000
  -7.9150000   5.1430000   2.6710000  -7.4800000   3.8520000   1.7490000
   0.0500000   2.1330000   0.2240000   0.1460000   2.1040000   1.2290000
   1.2880000   1.9050000  -0.5610000   1.1400000   2.3180000  -1.5590000
   1.6230000   0.4360000  -0.6550000   1.9420000  -0.1260000  -1.7160000
   2.2910000   2.7430000   0.2140000   2.2980000   2.5170000   1.2810000
   3.2760000   2.4050000  -0.1080000   2.1850000   4.2700000  -0.0180000
   1.1260000   4.5080000   0.0770000   2.9640000   5.1570000   1.0530000
   2.8750000   6.1800000   0.6890000   2.5630000   5.0760000   2.0630000
   4.0000000   4.8290000   1.1390000   2.6420000   4.5600000  -1.4300000
   3.4920000   3.9120000  -1.6440000   2.8050000   5.6230000  -1.6090000
   1.7720000   4.2910000  -2.0290000   1.5360000  -0.2780000   0.5040000
   1.2960000   0.2100000   1.3550000   2.0870000  -1.6840000   0.6130000
   2.9750000  -1.6930000  -0.0190000   1.1160000  -2.6160000  -0.0860000
   1.5590000  -3.4440000  -0.8720000   2.4850000  -2.1000000   2.0570000
   1.6870000  -1.8270000   2.7470000   3.7050000  -1.2740000   2.5010000
   3.7160000  -0.2430000   2.1460000   4.6230000  -1.7230000   2.1230000
   2.7490000  -3.6670000   2.3050000   1.8050000  -4.2100000   2.2750000
   3.0920000  -3.9470000   3.3010000   3.4550000  -3.8930000   1.5060000
   3.9780000  -1.3480000   4.0530000   3.0980000  -1.6070000   4.6420000
   4.4080000  -0.3860000   4.3310000   4.8350000  -2.0070000   4.1920000
  -0.2050000  -2.3880000   0.0120000  -0.5340000  -1.5920000   0.5400000
  -1.2150000  -3.3780000  -0.5530000  -0.8080000  -4.3890000  -0.5350000
  -1.4750000  -3.1830000  -2.0710000  -1.7110000  -4.1330000  -2.8360000
  -2.5750000  -3.2590000   0.1310000  -3.4200000  -3.1450000  -0.5470000
  -2.5230000  -2.3930000   0.7920000  -3.0080000  -4.3340000   1.0580000
  -2.4740000  -5.4670000   0.9720000  -3.8770000  -4.1560000   1.9390000
  -1.4400000  -1.9660000  -2.5490000  -1.2760000  -1.3390000  -1.7740000
  -1.1650000  -1.5890000  -3.9240000  -1.9690000  -2.0270000  -4.5160000
   0.0390000  -2.3010000  -4.5270000  -0.0900000  -2.9410000  -5.5240000
  -1.1460000  -0.0760000  -4.0750000  -0.4950000   0.2380000  -3.2590000
  -2.1270000   0.3740000  -3.9230000  -0.4070000   0.5140000  -5.2600000
   0.2840000  -0.2180000  -5.6780000  -1.1050000   0.7110000  -6.0750000
   0.4020000   1.8480000  -4.8690000   1.2400000   1.6340000  -4.2050000
  -0.2720000   2.4750000  -4.2850000   0.9130000   2.6130000  -6.0520000
   1.3670000   3.5540000  -5.7410000   0.0290000   2.8730000  -6.6340000
   1.7980000   1.7980000  -6.9040000   1.2210000   1.2560000  -7.5310000
   2.4100000   2.4010000  -7.4350000   2.3340000   1.1910000  -6.3000000
   1.2500000  -2.0970000  -4.0080000   1.3380000  -1.5780000  -3.1460000
   2.4230000  -2.8140000  -4.4900000   2.4790000  -2.6810000  -5.5710000
   2.5210000  -4.3270000  -4.4030000   3.1770000  -5.0610000  -5.1790000
   3.7040000  -2.1770000  -3.9690000   4.5950000  -2.6520000  -4.3780000
   3.7770000  -2.3820000  -2.9010000   3.8930000  -0.7170000  -4.3480000
   3.1610000  -0.1060000  -5.1580000   4.7400000   0.0080000  -3.5700000
   4.9570000   0.9660000  -3.8030000   5.3450000  -0.5180000  -2.9560000
   1.8310000  -4.9060000  -3.3890000   1.4500000  -4.3780000  -2.6170000
   1.6770000  -6.4090000  -3.3160000   2.6700000  -6.8350000  -3.4560000
   0.8340000  -6.7640000  -4.5760000   1.2480000  -7.6470000  -5.3330000
   1.0270000  -6.7510000  -1.9260000   0.0940000  -6.2370000  -1.6930000
   1.7120000  -6.4130000  -1.1490000   0.8140000  -8.3030000  -1.9600000
   0.2210000  -8.5650000  -2.8370000   1.8000000  -8.7120000  -2.1790000
   0.1580000  -9.0260000  -0.7560000   0.3680000  -8.6110000   0.4530000
  -0.3050000 -10.1200000  -1.0450000  -0.2430000  -6.0550000  -4.8230000
  -0.4950000  -5.3140000  -4.1850000  -1.1920000  -6.4270000  -5.9400000
  -1.3720000  -7.5020000  -5.9520000  -0.4200000  -6.2510000  -7.3020000
  -0.5530000  -7.0660000  -8.1740000  -2.4510000  -5.6910000  -5.8730000
  -2.9330000  -5.6990000  -6.8510000  -2.2620000  -4.6390000  -5.6560000
  -3.5320000  -6.2690000  -4.9490000  -4.3890000  -7.2150000  -5.2070000
  -3.4440000  -5.9800000  -3.6780000  -3.9890000  -6.5220000  -3.0220000
  -2.9680000  -5.1470000  -3.3630000   0.3900000  -5.1650000  -7.4430000
   0.4230000  -4.4350000  -6.7460000   1.1210000  -4.7460000  -8.6630000
   0.3660000  -4.7740000  -9.4490000   2.2390000  -5.7590000  -9.0240000
   2.4650000  -6.1040000 -10.1810000   1.6230000  -3.3160000  -8.5670000
   2.4540000  -3.1250000  -9.2460000   2.0250000  -3.1620000  -7.5660000
   0.5920000  -2.3010000  -8.8490000  -0.2830000  -2.6500000  -8.3010000
   0.2370000  -2.3270000  -9.8800000   1.0300000  -0.8020000  -8.6160000
   2.1940000  -0.4650000  -8.8170000   0.1470000   0.0310000  -8.3100000
   2.8400000  -6.4010000  -8.0080000   2.7440000  -6.0660000  -7.0600000
   3.6700000  -7.5840000  -8.2250000   4.3900000  -7.3700000  -9.0150000
   2.8450000  -8.9260000  -8.5850000   3.3010000  -9.7190000  -9.4250000
   4.4310000  -7.9140000  -6.9880000   5.1020000  -7.0770000  -6.7960000
   3.7850000  -8.0730000  -6.1240000   5.2990000  -9.1880000  -7.0520000
   6.4710000  -9.1370000  -7.7640000   6.6460000  -8.2350000  -8.3320000
   4.9810000 -10.3750000  -6.3300000   4.0670000 -10.4450000  -5.7600000
   7.4050000 -10.1740000  -7.7760000   8.3580000 -10.1540000  -8.2840000
   5.8420000 -11.4790000  -6.4040000   5.6500000 -12.5030000  -6.1200000
   7.0470000 -11.3640000  -7.0590000   7.7590000 -12.1760000  -7.0810000
   1.6760000  -9.1640000  -7.9140000   1.3270000  -8.4780000  -7.2600000
   0.8910000 -10.3820000  -8.1970000   1.6090000 -11.1820000  -8.0140000
   0.4070000 -10.3990000  -9.6710000   0.5060000 -11.4220000 -10.2700000
  -0.2480000 -10.5370000  -7.1650000  -0.7090000  -9.5600000  -7.0230000
   0.3020000 -10.9600000  -5.8010000   0.6800000 -11.9820000  -5.8110000
   1.2160000 -10.4250000  -5.5430000  -1.3860000 -11.4490000  -7.6800000
  -2.0870000 -11.8260000  -6.9350000  -1.8580000 -10.6740000  -8.2840000
  -1.1200000 -12.1810000  -8.4430000  -0.6410000 -10.7390000  -4.6260000
  -1.0190000  -9.7200000  -4.6960000  -1.3620000 -11.5320000  -4.4240000
  -0.1580000 -10.8520000  -3.6550000   0.0120000  -9.2080000 -10.2250000
  -0.1230000  -8.4090000  -9.6210000  -0.3820000  -9.0610000 -11.6410000
  -1.0870000  -9.8620000 -11.8660000   0.8540000  -9.2090000 -12.5840000
   0.7030000  -9.8570000 -13.6110000  -1.0440000  -7.6630000 -11.9010000
  -0.2930000  -6.8740000 -11.8590000  -1.7030000  -7.3830000 -11.0790000
  -1.7940000  -7.5870000 -13.2270000  -2.1780000  -8.5750000 -13.4830000
  -1.0640000  -7.3590000 -14.0030000  -2.9290000  -6.5310000 -13.3100000
  -3.9220000  -6.8280000 -14.0730000  -2.8060000  -5.3900000 -12.7810000
   2.1070000  -8.8000000 -12.2130000   2.2850000  -8.3440000 -11.3300000
   3.3160000  -9.2480000 -12.9210000   3.1990000  -8.8280000 -13.9200000
   3.4440000 -10.7550000 -12.9380000   3.5740000 -11.3360000 -14.0050000
   4.5540000  -8.5280000 -12.4050000   5.0530000  -8.2710000 -13.3380000
   4.2500000  -7.6150000 -11.8940000   5.6340000  -9.2680000 -11.5880000
   5.7860000 -10.2970000 -11.9140000   5.4260000  -9.0910000 -10.5330000
   6.9240000  -8.6130000 -11.8640000   7.2520000  -8.7080000 -12.8990000
   6.7560000  -7.5610000 -11.6340000   8.1060000  -9.1310000 -11.0530000
   8.8830000  -8.3920000 -11.2480000   7.8070000  -9.0980000 -10.0050000
   8.4350000 -10.5250000 -11.3410000   7.8370000 -11.1780000 -10.8550000
   8.2540000 -10.6730000 -12.3230000   9.3790000 -10.7990000 -11.1120000
   3.3850000 -11.3180000 -11.7280000   3.1980000 -10.6590000 -10.9860000
   3.5270000 -12.7670000 -11.5480000   4.5130000 -13.0860000 -11.8840000
   2.5660000 -13.6490000 -12.3310000   2.9360000 -14.7030000 -12.8090000
   3.4220000 -13.0470000 -10.0620000   4.2010000 -12.5750000  -9.4640000
   2.4540000 -12.6380000  -9.7700000   3.4690000 -14.4250000  -9.6950000
   4.1260000 -14.8480000 -10.2520000   1.3100000 -13.1980000 -12.4830000
   1.0190000 -12.4300000 -11.8960000   0.3060000 -13.7070000 -13.3980000
   0.2600000 -14.7850000 -13.2400000   0.6740000 -13.6330000 -14.8840000
   0.4150000 -14.6340000 -15.5360000  -1.0630000 -13.1270000 -13.0230000
  -1.2680000 -12.0730000 -13.2140000  -1.7300000 -13.6990000 -13.6690000
  -1.6250000 -13.3840000 -11.6830000  -1.3010000 -14.4850000 -10.9010000
  -0.6730000 -15.3230000 -11.1620000  -2.7500000 -12.7780000 -11.0270000
  -2.2140000 -14.5080000  -9.8030000  -2.2040000 -15.1280000  -9.0070000
  -3.0890000 -13.4890000  -9.7960000  -3.5450000 -11.6260000 -11.2610000
  -3.4300000 -11.0110000 -12.1410000  -4.1040000 -13.0290000  -8.8960000
  -4.2750000 -13.5010000  -7.9400000  -4.5560000 -11.2020000 -10.4030000
  -5.1230000 -10.3090000 -10.6220000  -4.9390000 -11.9170000  -9.2530000
  -5.7490000 -11.5540000  -8.6370000   1.2570000 -12.5590000 -15.4060000
   1.3990000 -11.7430000 -14.8270000   1.9800000 -12.6580000 -16.7020000
   1.2460000 -13.1240000 -17.3590000   3.1870000 -13.6730000 -16.7460000
   3.3140000 -14.3970000 -17.6870000   2.4010000 -11.2670000 -17.0990000
   2.5740000 -10.7360000 -16.1630000   3.2500000 -11.2350000 -17.7810000
   1.2390000 -10.5830000 -17.8970000   0.2310000 -10.6770000 -17.4940000
   1.2950000 -11.0840000 -18.8630000   1.4770000  -9.1210000 -18.1070000
   1.0220000  -8.9520000 -19.0830000   2.5390000  -8.8790000 -18.1350000
   0.8350000  -8.2390000 -17.0040000  -0.2430000  -8.1630000 -17.1500000
   1.1740000  -8.7660000 -16.1130000   1.4190000  -6.8900000 -17.0310000
   1.4580000  -6.5260000 -17.9730000   2.3000000  -6.7420000 -16.5610000
   0.8880000  -6.1990000 -16.5210000   4.0710000 -13.6240000 -15.7770000
   4.0040000 -12.9380000 -15.0380000   5.2860000 -14.4190000 -15.8290000
   5.8150000 -14.3010000 -16.7750000   4.9830000 -15.8880000 -15.9120000
   5.6950000 -16.6190000 -16.5680000   6.3370000 -14.1600000 -14.7320000
   5.9550000 -14.4700000 -13.7590000   7.1650000 -14.8460000 -14.9100000
   6.8630000 -12.6980000 -14.7350000   6.9780000 -12.3790000 -15.7710000
   6.1860000 -11.9780000 -14.2750000   8.2810000 -12.5510000 -14.1320000
   8.8770000 -13.5130000 -13.6720000   8.7180000 -11.3870000 -13.9470000
   3.9780000 -16.3130000 -15.1500000   3.4840000 -15.6640000 -14.5540000
   3.4820000 -17.7160000 -15.2110000   4.2530000 -18.4030000 -14.8620000
   2.9690000 -18.2500000 -16.5660000   2.9000000 -19.4650000 -16.8020000
   2.3460000 -17.8590000 -14.0760000   1.8550000 -16.8940000 -13.9500000
   1.6000000 -18.6210000 -14.3010000   2.9680000 -18.0760000 -12.7520000
   4.1860000 -17.9990000 -12.5760000   2.1730000 -18.4680000 -11.8410000
   2.6530000 -17.3880000 -17.5690000   2.9320000 -16.4600000 -17.2860000
   2.1310000 -17.6610000 -18.9540000   2.0020000 -18.7360000 -19.0820000
   3.0210000 -17.2810000 -20.1630000   2.9840000 -17.9120000 -21.2210000
   0.6970000 -17.0020000 -19.0750000   0.3640000 -17.2620000 -20.0800000
   0.8000000 -15.9190000 -19.1350000  -0.4140000 -17.4300000 -18.0620000
  -0.1530000 -17.1920000 -17.0310000  -1.7200000 -16.7630000 -18.5070000
  -1.8530000 -16.7730000 -19.5890000  -1.6910000 -15.7460000 -18.1180000
  -2.6000000 -17.2510000 -18.0880000  -0.5620000 -18.9710000 -18.1090000
  -1.2870000 -19.3380000 -17.3830000  -0.8530000 -19.3430000 -19.0910000
   0.3690000 -19.4750000 -17.8490000   3.7290000 -16.1450000 -20.0840000
   3.5750000 -15.5820000 -19.2600000   4.3710000 -15.4570000 -21.1600000
   4.2300000 -16.0240000 -22.0810000   5.8350000 -15.3010000 -20.9060000
   6.1790000 -14.3820000 -20.1340000   3.6120000 -14.0850000 -21.3930000
   3.8330000 -13.5250000 -20.4840000   4.0200000 -13.4960000 -22.2140000
   2.1010000 -14.2800000 -21.6660000   1.6680000 -15.2040000 -22.6630000
   2.3670000 -15.6920000 -23.3270000   1.1600000 -13.6500000 -20.8200000
   1.5680000 -12.8800000 -20.1830000   0.2780000 -15.4490000 -22.7930000
  -0.1980000 -16.0110000 -23.5830000  -0.1950000 -14.0310000 -20.8190000
  -0.9120000 -13.6280000 -20.1180000  -0.6610000 -14.8850000 -21.8210000
  -1.9810000 -15.0610000 -21.9240000  -2.2480000 -15.3520000 -22.7990000
   6.6380000 -16.2170000 -21.2470000   1.6680000   8.5810000   4.2550000
   1.6820000  10.0690000   4.2910000   1.2510000  10.7300000   5.5650000
  -0.2070000  10.7410000   5.8690000  -0.7890000  12.0990000   6.0900000
  -0.2260000  12.6400000   7.3920000  -1.2220000  12.9430000   8.4740000
  -0.4500000  12.9090000   4.9690000  -1.3850000  13.4360000   4.1400000
  -2.0390000  14.3800000   4.4530000  -1.5170000  12.7270000   2.8300000
  -0.5880000  11.8840000   2.4180000  -0.5970000  11.2440000   1.0690000
   0.0570000  10.0490000   0.9090000   0.1060000   9.4240000  -0.3300000
  -0.5170000   9.9930000  -1.4250000  -0.4840000   9.4240000  -2.6480000
  -1.7020000   9.0150000  -3.2660000  -1.1900000  11.2040000  -1.2600000
  -1.2370000  11.8260000  -0.0090000   1.6643154   8.1893794   5.2829201
   0.7665640   8.2354454   3.7277380   2.5627746   8.2185456   3.7277380
   2.7115515  10.3948606   4.0816237   0.9332259  10.3764378   3.5461381
   1.7574485  10.2129708   6.3933663   1.5215343  11.7888131   5.4395969
  -0.7363795  10.2746856   5.0250165  -0.3310894  10.1925184   6.8143940
  -1.8855531  12.0812601   6.1751853   0.4807076  11.8950281   7.7864377
   0.2296004  13.6074760   7.1342824  -0.7502378  12.7994820   9.4572817
  -1.5613101  13.9850101   8.3786920  -2.0841149  12.2664837   8.3786920
  -2.4004379  12.9103309   2.2007724   0.2359995  11.6403541   3.1047761
   0.5491391   9.5795873   1.7735524   0.6435962   8.4707348  -0.4407962
  -2.4413905   8.7667154  -2.4903348  -2.0880718   9.8327883  -3.8922354
  -1.5162616   8.1299404  -3.8922354  -1.6877332  11.6731873  -2.1214668
  -1.7806405  12.7739517   0.1168678
