
  506  0.0000000e+00
   4.5040000   4.8610000 -11.0050000   3.5080000   4.9740000 -11.1240000
   4.8620000   5.1270000 -10.0980000   4.9110000   5.4420000 -11.7240000
   4.8520000   3.4700000 -11.1000000   4.5930000   3.0850000 -12.0870000
   4.3100000   2.5910000  -9.9770000   3.8530000   3.1280000  -8.9570000
   6.3960000   3.3640000 -11.1170000   6.7230000   4.0600000 -11.8900000
   6.7590000   2.3580000 -11.3260000   6.9800000   3.8040000  -9.9470000
   7.9010000   3.5350000  -9.9720000   4.3780000   1.2550000 -10.0970000
   4.6590000   0.8310000 -10.9700000   4.0130000   0.2910000  -8.9890000
   2.9730000   0.5070000  -8.7450000   4.8860000   0.5510000  -7.7450000
   4.3970000   0.5350000  -6.5980000   4.1540000  -1.1530000  -9.3840000
   3.9200000  -1.7800000  -8.5240000   5.1880000  -1.3710000  -9.6510000
   3.3610000  -1.6670000 -10.5330000   2.3240000  -1.4820000 -10.2540000
   3.7050000  -1.0340000 -11.3510000   3.7900000  -3.0450000 -10.9280000
   4.6670000  -3.6300000 -10.2960000   3.2500000  -3.5390000 -11.9400000
   6.1730000   0.6620000  -7.8700000   6.5920000   0.6500000  -8.7890000
   7.1490000   0.8470000  -6.7940000   7.1940000  -0.0580000  -6.1870000
   6.8460000   2.0740000  -5.9620000   6.9050000   1.9340000  -4.7810000
   8.5170000   0.8880000  -7.4430000   9.1750000   0.6700000  -6.6020000
   8.6900000   1.9040000  -7.7990000   8.6870000  -0.1850000  -8.5990000
   8.0440000  -1.0260000  -8.3420000   9.6590000  -0.6770000  -8.5540000
   8.4790000   0.3960000  -9.9740000   9.2710000   1.1870000 -10.5500000
   7.3250000   0.2800000 -10.5360000   6.5000000   3.2100000  -6.4930000
   6.3810000   3.1220000  -7.4920000   5.9530000   4.3240000  -5.7730000
   6.5930000   4.8020000  -5.0320000   4.6880000   4.0110000  -4.8890000
   4.5910000   4.6250000  -3.7860000   5.5500000   5.4690000  -6.7660000
   4.9110000   5.0670000  -7.5530000   4.9990000   6.1890000  -6.1610000
   6.7840000   6.1570000  -7.3520000   6.3770000   6.7200000  -8.1920000
   7.3410000   5.3040000  -7.7390000   7.5840000   7.0260000  -6.3110000
   7.3440000   6.9600000  -5.0790000   8.4460000   7.8580000  -6.7490000
   3.7070000   3.2430000  -5.3660000   3.8760000   2.9420000  -6.3150000
   2.5050000   2.7630000  -4.7050000   2.0790000   3.6490000  -4.2350000
   2.8870000   1.8000000  -3.5170000   2.3980000   2.0610000  -2.4490000
   1.5650000   2.1290000  -5.7540000   2.2050000   1.4800000  -6.3520000
   0.8010000   1.5070000  -5.2890000   0.8080000   3.1440000  -6.6640000
   1.4680000   3.8970000  -7.0950000   0.3520000   2.2770000  -7.8760000
   1.1470000   1.6500000  -8.2810000  -0.5190000   1.6800000  -7.6050000
  -0.0430000   2.9430000  -8.6430000  -0.4060000   3.7340000  -6.0160000
  -1.0740000   3.0280000  -5.5220000  -0.1480000   4.4210000  -5.2100000
  -1.0430000   4.2590000  -6.7280000   3.8360000   0.8710000  -3.6020000
   4.2240000   0.7330000  -4.5240000   4.3350000   0.1150000  -2.4830000
   3.4950000  -0.3860000  -2.0020000   5.0530000   0.9670000  -1.3840000
   4.9050000   0.7400000  -0.1310000   5.2990000  -0.9540000  -3.0350000
   4.7540000  -1.3340000  -3.9000000   6.1820000  -0.5080000  -3.4920000
   5.6100000  -2.0400000  -2.0500000   4.6910000  -2.4300000  -1.6140000
   6.2060000  -1.5800000  -1.2620000   6.3670000  -3.1780000  -2.7090000
   7.5450000  -3.2870000  -2.4630000   5.7690000  -4.0260000  -3.4050000
   5.8340000   1.9830000  -1.8600000   6.0400000   2.0650000  -2.8450000
   6.3810000   3.0070000  -1.0330000   7.0420000   2.5480000  -0.2970000
   5.3390000   3.8190000  -0.2690000   5.4920000   4.0060000   0.9620000
   7.3090000   3.9070000  -1.8500000   6.6530000   4.4480000  -2.5320000
   7.9290000   3.2710000  -2.4810000   8.1920000   4.9090000  -1.1500000
   8.7830000   4.3870000  -0.3970000   7.5450000   5.6060000  -0.6170000
   9.1320000   5.6950000  -2.0970000   8.5880000   6.2770000  -2.8410000
   9.7680000   6.3850000  -1.5420000  10.0960000   4.7040000  -2.7330000
  10.8640000   4.2570000  -2.2540000   9.9660000   4.2930000  -4.0010000
   9.1510000   4.7390000  -4.8750000   9.2490000   4.5600000  -5.8640000
   8.6240000   5.5540000  -4.5930000  10.6610000   3.3520000  -4.5840000
  10.6840000   3.2260000  -5.5860000  11.2940000   2.8690000  -3.9620000
   4.1890000   4.1340000  -0.8840000   4.0860000   3.8140000  -1.8370000
   2.9900000   4.8340000  -0.2320000   3.3700000   5.7420000   0.2360000
   2.3640000   3.9460000   0.7950000   2.1060000   4.4260000   1.8880000
   2.0690000   5.2080000  -1.3830000   1.6200000   4.3890000  -1.9450000
   1.2420000   5.7880000  -0.9740000   2.5820000   5.9360000  -2.0120000
   2.2930000   2.6520000   0.4950000   2.5720000   2.4000000  -0.4430000
   1.9350000   1.6380000   1.4440000   0.9790000   2.0690000   1.7420000
   2.8670000   1.4720000   2.6230000   2.3920000   1.3250000   3.7360000
   1.6940000   0.2710000   0.7740000   0.9910000   0.2600000  -0.0590000
   2.5980000  -0.2530000   0.4630000   1.2480000  -0.3570000   1.5450000
   4.1520000   1.5180000   2.4680000   4.5090000   1.6840000   1.5380000
   5.0660000   1.4920000   3.5960000   4.8950000   0.6330000   4.2440000
   4.8930000   2.6670000   4.5070000   4.8300000   2.5440000   5.7270000
   6.5250000   1.4700000   3.0350000   6.7030000   2.3160000   2.3720000
   7.1430000   1.5650000   3.9280000   6.9850000   0.1130000   2.4880000
   6.6250000  -0.6350000   3.1950000   6.6080000  -0.1800000   1.5080000
   8.5400000  -0.1130000   2.4190000   8.8710000   0.2010000   3.4090000
   8.7220000  -1.1820000   2.3050000   9.2040000   0.7260000   1.3850000
   9.7150000   1.5430000   1.6890000   9.1360000   0.5940000   0.0790000
   8.3700000  -0.2550000  -0.4810000   8.4190000  -0.3250000  -1.4870000
   8.0310000  -0.9530000   0.1660000   9.7970000   1.3270000  -0.7390000
   9.8390000   0.9210000  -1.6630000  10.6320000   1.7400000  -0.3490000
   4.7170000   3.8720000   3.8980000   4.6050000   3.9400000   2.8970000
   4.5260000   5.0880000   4.6180000   5.2600000   5.2030000   5.4160000
   3.1380000   5.1110000   5.3270000   3.1160000   5.9240000   6.2310000
   4.8720000   6.1550000   3.6010000   4.4930000   5.9020000   2.6110000
   4.4140000   7.1160000   3.8380000   6.3730000   6.3850000   3.3640000
   6.9320000   5.4700000   3.1720000   6.8210000   6.7100000   4.3030000
   6.7270000   7.3490000   2.2210000   5.8600000   7.7120000   1.3650000
   7.9240000   7.7650000   2.1150000   2.1120000   4.3550000   4.9740000
   2.2270000   3.7690000   4.1580000   0.9170000   4.1840000   5.7270000
   0.5240000   5.1190000   6.1260000   1.2190000   3.4130000   7.0670000
   0.9030000   3.8450000   8.1890000  -0.2130000   3.5720000   4.9490000
  -0.9810000   3.3570000   5.6920000   0.1320000   2.6110000   4.5670000
  -0.7920000   4.3120000   3.7430000  -0.0150000   4.3570000   2.9800000
  -1.9740000   3.7130000   3.1160000  -2.2330000   4.2720000   2.2170000
  -1.7170000   2.7070000   2.7840000  -2.8520000   3.7060000   3.7610000
  -1.1530000   5.7650000   4.0290000  -2.1090000   5.7330000   4.5530000
  -1.3600000   6.3340000   3.1220000  -0.4870000   6.4060000   4.6060000
   1.9450000   2.3360000   6.9950000   2.2150000   2.2370000   6.0270000
   2.3090000   1.4110000   8.0250000   1.4140000   1.0900000   8.5560000
   3.3120000   1.9830000   9.0610000   3.1650000   1.8060000  10.2880000
   2.8230000   0.1560000   7.4160000   3.5780000   0.4940000   6.7060000
   3.5670000  -0.7870000   8.3820000   3.8150000  -1.7410000   7.9170000
   4.5670000  -0.4130000   8.6050000   2.9830000  -1.0470000   9.2650000
   1.6840000  -0.5810000   6.6990000   0.9210000  -0.8720000   7.4200000
   2.0670000  -1.5210000   6.3010000   1.3150000  -0.0960000   5.7950000
   4.3510000   2.7080000   8.5420000   4.3300000   2.8190000   7.5380000
   5.4370000   3.2680000   9.3640000   5.7410000   2.3870000   9.9290000
   4.8490000   4.2290000  10.4110000   5.2140000   4.2190000  11.5850000
   6.5880000   3.7800000   8.4540000   6.1600000   4.4660000   7.7230000
   7.2660000   4.4260000   9.0130000   7.3030000   2.6780000   7.7070000
   6.5800000   1.9250000   7.3940000   7.8180000   3.1090000   6.8490000
   8.3840000   1.9970000   8.5240000   8.3220000   1.8340000   9.7760000
   9.1710000   1.3100000   7.8660000   3.8650000   4.9780000   9.8810000
   3.6300000   4.8050000   8.9140000   3.1120000   6.0180000  10.5610000
   3.7950000   6.6120000  11.1690000   1.9090000   5.5050000  11.4190000
   1.3000000   6.2680000  12.0980000   2.5890000   6.9250000   9.4030000
   3.4420000   7.5640000   9.1730000   2.1830000   6.4040000   8.5370000
   1.8140000   7.5710000   9.8140000   1.5120000   4.2490000  11.3420000
   1.9710000   3.6940000  10.6340000   0.2550000   3.7120000  11.8410000
   0.3450000   2.6280000  11.7730000   0.2620000   4.0240000  12.8850000
  -1.0400000   4.2760000  11.2760000  -2.0680000   4.2250000  11.9560000
  -1.0480000   4.7720000  10.0530000  -0.1700000   4.7730000   9.5530000
  -2.2820000   5.3510000   9.4200000  -2.7270000   6.1210000  10.0500000
  -3.3250000   4.2520000   9.1830000  -4.5480000   4.5340000   9.1430000
  -1.9180000   5.9360000   8.0110000  -1.4940000   5.1530000   7.3830000
  -2.8160000   6.1630000   7.4380000  -0.9080000   7.1120000   7.8290000
  -0.8360000   7.5450000   6.8310000   0.0930000   6.7240000   8.0220000
  -1.1610000   8.3010000   8.7780000  -1.4220000   8.0820000   9.9820000
  -0.9970000   9.4730000   8.4070000  -2.9810000   2.9910000   9.1600000
  -2.0220000   2.6990000   9.2880000  -3.7680000   1.8000000   8.9840000
  -4.7820000   1.9480000   9.3540000  -3.0900000   0.6140000   9.6550000
  -1.8310000   0.6340000   9.8970000  -3.9220000   1.4930000   7.4440000
  -4.4240000   0.5260000   7.4870000  -2.6050000   1.4060000   6.6420000
  -2.6360000   1.7100000   5.5960000  -1.9030000   2.0950000   7.1120000
  -4.8660000   2.4310000   6.6660000  -4.4340000   3.4190000   6.5070000
  -5.1670000   1.9900000   5.7160000  -5.7670000   2.5900000   7.2590000
  -2.0330000  -0.0370000   6.4740000  -2.6010000  -0.6360000   5.7620000
  -1.8990000  -0.4650000   7.4680000  -1.0370000   0.2120000   6.1070000
  -3.7310000  -0.5470000   9.8480000  -4.7060000  -0.5940000   9.5880000
  -3.0830000  -1.7690000  10.2430000  -2.2080000  -1.5640000  10.8600000
  -2.6760000  -2.5770000   9.0100000  -3.4140000  -2.6890000   8.0540000
  -4.0860000  -2.6470000  11.0320000  -4.9910000  -2.7220000  10.4290000
  -4.2250000  -2.1210000  11.9760000  -3.5860000  -3.9770000  11.2580000
  -3.0070000  -3.9950000  12.0230000  -1.4640000  -3.1880000   8.9850000
  -0.9750000  -3.2310000   9.8680000  -0.6810000  -3.5550000   7.7530000
  -0.5650000  -2.7250000   7.0570000  -1.2950000  -4.7230000   6.9480000
  -1.1410000  -4.8640000   5.7110000   0.7660000  -3.8740000   8.0400000
   1.3310000  -3.1500000   8.6270000   1.3550000  -4.0730000   7.1450000
   0.8510000  -4.9600000   8.9160000   1.7690000  -5.2200000   9.0240000
  -2.1840000  -5.4960000   7.5940000  -2.4160000  -5.2980000   8.5560000
  -3.0650000  -6.4350000   6.9710000  -2.5140000  -7.2350000   6.4770000
  -3.5740000  -6.9770000   7.7680000  -4.1410000  -5.8290000   6.0140000
  -4.6230000  -6.4790000   5.0830000  -4.5090000  -4.5500000   6.2100000
  -4.0730000  -3.9900000   6.9290000  -5.5450000  -3.9100000   5.3860000
  -6.3560000  -4.6130000   5.1940000  -5.1420000  -3.6040000   3.9840000
  -5.9760000  -3.4210000   3.0780000  -6.1400000  -2.6620000   6.0640000
  -6.8860000  -2.3320000   5.3400000  -5.2330000  -1.5190000   6.1840000
  -4.4890000  -1.9260000   6.6340000  -6.9020000  -3.0500000   7.2970000
  -6.2580000  -3.4260000   8.0920000  -7.6410000  -3.8030000   7.0190000
  -7.4190000  -2.1550000   7.6430000  -3.8130000  -3.5150000   3.6990000
  -3.1660000  -3.6530000   4.4620000  -3.3260000  -3.1750000   2.3680000
  -3.7110000  -2.1960000   2.0800000  -3.7310000  -4.1720000   1.2950000
  -4.0780000  -3.7970000   0.2120000  -1.7920000  -3.1000000   2.3710000
  -1.3890000  -4.0750000   2.6460000  -1.4230000  -2.9410000   1.3580000
  -1.2010000  -2.0900000   3.4060000  -1.6930000  -2.2660000   4.3630000
   0.3460000  -2.2610000   3.6790000   0.4290000  -3.1860000   4.2500000
   0.8510000  -2.2980000   2.7140000   0.7130000  -1.4170000   4.2630000
  -1.4190000  -0.6850000   2.9750000  -2.4890000  -0.4960000   2.8900000
  -0.8200000  -0.5200000   2.0790000  -1.0020000  -0.0390000   3.7480000
  -3.6960000  -5.4500000   1.6180000  -3.4650000  -5.7060000   2.5670000
  -3.7910000  -6.4920000   0.6270000  -3.0850000  -6.3840000  -0.1960000
  -5.1350000  -6.5960000  -0.2160000  -5.1080000  -7.0670000  -1.3640000
  -3.3670000  -7.8500000   1.3160000  -3.2840000  -8.5840000   0.5150000
  -4.1760000  -8.1660000   1.9740000  -2.0340000  -7.8530000   2.0510000
  -1.9800000  -8.9100000   2.3090000  -2.1440000  -7.2070000   2.9220000
  -0.8190000  -7.4150000   1.2230000   0.1970000  -7.1760000   1.9070000
  -0.8190000  -7.5470000  -0.0260000  -6.2930000  -6.1230000   0.3130000
  -6.3310000  -5.8520000   1.2860000  -7.5570000  -5.8550000  -0.3640000
  -7.8400000  -6.7370000  -0.9380000  -7.5910000  -4.6430000  -1.3060000
  -7.9470000  -4.7570000  -2.4880000  -8.6010000  -5.6990000   0.7190000
  -8.3750000  -6.4990000   1.4240000  -8.5700000  -4.6970000   1.1470000
 -10.0890000  -5.9220000   0.1510000 -10.1680000  -6.9360000  -0.2420000
 -10.2650000  -5.1820000  -0.6300000 -11.1620000  -5.8500000   1.2260000
 -10.8360000  -5.4590000   2.3600000 -12.3440000  -6.1760000   0.9680000
  -7.0580000  -3.4940000  -0.8130000  -6.5790000  -3.6250000   0.0660000
  -6.7890000  -2.1730000  -1.5380000  -7.7590000  -1.8290000  -1.8990000
  -5.9500000  -2.4640000  -2.7850000  -6.2200000  -1.9260000  -3.8760000
  -6.1670000  -1.0910000  -0.6360000  -5.1230000  -1.3410000  -0.4480000
  -6.9130000  -0.9510000   0.7000000  -7.8220000  -0.3550000   0.6120000
  -7.2180000  -1.8900000   1.1620000  -6.2970000   0.2450000  -1.4080000
  -7.3100000   0.3840000  -1.7860000  -5.9780000   1.1460000  -0.8850000
  -5.6600000   0.2030000  -2.2920000  -6.0560000  -0.2230000   1.7440000
  -5.0890000  -0.7230000   1.8040000  -5.8590000   0.8160000   1.4820000
  -6.5390000  -0.3700000   2.7090000  -4.9170000  -3.2660000  -2.5880000
  -4.6800000  -3.4690000  -1.6280000  -3.8980000  -3.5670000  -3.6020000
  -3.5430000  -2.6020000  -3.9610000  -4.5370000  -4.4060000  -4.7660000
  -4.1050000  -4.2580000  -5.9010000  -2.7660000  -4.3020000  -2.8290000
  -2.3950000  -3.6330000  -2.0520000  -3.2070000  -5.1570000  -2.3160000
  -1.6540000  -4.8270000  -3.7550000  -1.1570000  -3.9700000  -4.2090000
  -2.1820000  -5.4900000  -4.4400000  -0.6790000  -5.6360000  -2.9620000
  -0.0370000  -6.1270000  -3.6930000  -1.1610000  -6.5560000  -2.6310000
   0.2670000  -4.9570000  -1.9390000   0.7830000  -4.1960000  -2.5250000
  -0.3390000  -4.4610000  -1.1810000   1.1160000  -5.9380000  -1.2590000
   1.5530000  -6.5010000  -1.9740000   0.6520000  -6.5140000  -0.5710000
   1.9020000  -5.5370000  -0.7670000  -5.5650000  -5.2320000  -4.4730000
  -5.7970000  -5.3000000  -3.4920000  -6.2360000  -6.1790000  -5.4080000
  -5.4700000  -6.5770000  -6.0720000  -7.3080000  -5.5250000  -6.2330000
  -7.6120000  -5.9570000  -7.3610000  -6.8400000  -7.2630000  -4.5180000
  -6.1700000  -7.6040000  -3.7290000  -7.6830000  -6.8140000  -3.9930000
  -7.3960000  -8.3720000  -5.4020000  -7.0690000  -8.3940000  -6.4420000
  -8.4590000  -8.1340000  -5.4380000  -7.1040000  -9.7360000  -4.8070000
  -7.9000000 -10.6460000  -4.9880000  -5.9860000  -9.8820000  -4.2410000
  -7.9250000  -4.4370000  -5.7170000  -7.6170000  -4.1590000  -4.7960000
  -8.7890000  -3.5410000  -6.3740000  -9.4980000  -4.1150000  -6.9700000
  -7.9930000  -2.6980000  -7.3930000  -8.5660000  -2.3470000  -8.4400000
  -9.5290000  -2.6270000  -5.3690000  -8.8250000  -2.2810000  -4.6130000
 -10.1730000  -1.8750000  -5.8260000 -10.5250000  -3.4730000  -4.5610000
 -11.2780000  -3.7580000  -5.2960000 -10.0390000  -4.3930000  -4.2380000
 -11.2000000  -2.5910000  -3.5230000 -11.7470000  -1.7470000  -3.9420000
 -10.5730000  -2.0980000  -2.7800000 -12.0110000  -3.6140000  -2.6650000
 -11.3750000  -4.4580000  -2.4010000 -12.2720000  -3.1980000  -1.6920000
 -13.3230000  -4.0730000  -3.1910000 -13.9140000  -3.3130000  -3.4960000
 -13.2380000  -4.7780000  -3.9100000 -13.8020000  -4.5640000  -2.4500000
  -6.7780000  -2.3510000  -7.0440000  -6.5220000  -2.5460000  -6.0870000
  -5.9160000  -1.4190000  -7.7080000  -6.4870000  -0.6600000  -8.2440000
  -4.9470000  -2.0390000  -8.7750000  -4.5450000  -1.2560000  -9.6390000
  -5.1200000  -0.6490000  -6.6950000  -4.5900000  -1.2710000  -5.9730000
  -4.3800000  -0.0850000  -7.2620000  -5.9540000   0.4240000  -5.9320000
  -6.8320000   0.1460000  -5.3490000  -4.8960000   1.1510000  -4.9990000
  -4.4570000   0.4310000  -4.3080000  -4.0750000   1.5440000  -5.5980000
  -5.3680000   1.8770000  -4.3360000  -6.5180000   1.5430000  -6.8490000
  -7.4500000   1.2200000  -7.3130000  -6.7880000   2.3630000  -6.1840000
  -5.7230000   1.7680000  -7.5600000  -4.6780000  -3.3850000  -8.7770000
  -5.0080000  -3.9390000  -8.0000000  -3.7550000  -4.0930000  -9.6740000
  -3.1080000  -3.3840000 -10.1920000  -4.4900000  -4.7890000 -10.7330000
  -5.1810000  -5.7850000 -10.5430000  -2.7920000  -4.9650000  -8.9270000
  -3.4390000  -5.5760000  -8.2970000  -2.1810000  -5.5800000  -9.5880000
  -1.9790000  -4.2830000  -7.9960000  -2.5230000  -4.0100000  -7.2530000
  -4.3990000  -4.3790000 -11.9200000  -0.9170000   1.1650000 -12.7420000
  -0.7810000   0.0230000 -11.9450000  -0.5770000   0.1610000 -10.5600000
  -1.6550000   0.1260000  -9.7150000  -1.4760000   0.2620000  -8.3430000
  -0.2410000   0.4850000  -7.7970000  -0.0340000   0.6070000  -6.3160000
   0.8840000  -0.0020000  -5.7850000  -0.9270000   1.4460000  -5.4410000
  -1.0450000   2.7880000  -5.6920000  -1.8420000   3.5400000  -4.8660000
  -2.5890000   2.9300000  -3.9120000  -2.5450000   1.5350000  -3.6880000
  -1.6560000   0.8190000  -4.4710000   0.8550000   0.5400000  -8.6770000
   2.1000000   0.6900000  -8.0720000   0.7090000   0.3720000 -10.0100000
  -1.0224932   2.0508324 -12.0984379  -0.0258680   1.2771798 -13.3770586
  -1.8095542   1.0647618 -13.3770586  -2.6669474  -0.0103589 -10.1241071
  -2.3498545   0.1884448  -7.6789458  -0.5132159   3.2516160  -6.5359584
  -1.8750551   4.6338779  -4.9770788  -3.2548171   3.5447915  -3.2885267
  -3.1806576   1.0465224  -2.9347875  -1.5358039  -0.2626255  -4.3108775
   2.9180021   0.7365631  -8.6277018   1.5904814   0.3993521 -10.6674515
