
  505  0.0000000e+00
  -6.3310000  -2.2710000  11.5340000  -7.0140000  -2.8870000  11.9520000
  -6.4430000  -2.0860000  10.5480000  -6.3780000  -1.3810000  12.0090000
  -4.9550000  -2.7910000  11.7620000  -4.9510000  -3.0100000  12.8300000
  -4.7040000  -3.6340000  11.1180000  -3.9170000  -1.6740000  11.5790000
  -4.0930000  -0.7780000  10.7450000  -2.8140000  -1.7280000  12.3900000
  -1.9470000  -0.6400000  12.7080000  -2.5280000   0.1110000  13.2430000
  -1.3500000   0.0550000  11.4810000  -1.1240000   1.2760000  11.4270000
  -0.7830000  -1.1760000  13.6090000  -0.7410000  -0.6270000  14.5500000
   0.1200000  -1.0960000  13.0050000  -1.1470000  -2.6400000  13.9150000
  -0.3710000  -3.3700000  13.6820000  -1.3180000  -2.6690000  14.9910000
  -2.5270000  -2.8810000  13.2730000  -2.5660000  -3.8030000  12.6920000
  -3.3670000  -3.0280000  13.9520000  -1.2000000  -0.7110000  10.3920000
  -1.4410000  -1.6770000  10.5670000  -0.4830000  -0.4130000   9.1540000
   0.0230000   0.5320000   9.3540000  -1.3660000  -0.1780000   7.9800000
  -0.8220000   0.1660000   6.9440000   0.6650000  -1.3920000   8.9910000
   0.2190000  -2.3670000   8.7970000   1.2730000  -1.1960000   8.1080000
   1.6180000  -1.4470000  10.2190000   2.4580000  -0.3870000  10.5710000
   2.3600000   0.5790000  10.0980000   1.7720000  -2.6630000  10.9010000
   1.1910000  -3.5380000  10.6460000   3.4550000  -0.5210000  11.5510000
   4.2070000   0.2190000  11.7800000   2.7490000  -2.7760000  11.8920000
   2.9890000  -3.7260000  12.3450000   3.6070000  -1.6900000  12.1830000
   4.3550000  -1.8500000  12.9450000  -2.7070000  -0.3820000   8.1190000
  -3.1290000  -0.6240000   9.0040000  -3.6510000  -0.3520000   6.9800000
  -3.3030000  -1.0700000   6.2380000  -3.6280000   1.0220000   6.2450000
  -3.3820000   1.1110000   4.9920000  -5.0490000  -0.7650000   7.4600000
  -4.9010000  -1.7130000   7.9780000  -5.3220000  -0.1180000   8.2940000
  -6.1270000  -0.8470000   6.4390000  -6.0710000   0.0470000   5.8170000
  -5.8400000  -1.6820000   5.7990000  -7.4630000  -1.1530000   6.9440000
  -8.4050000  -0.2740000   6.8850000  -7.6490000  -2.2380000   7.5690000
  -3.8750000   2.1370000   6.9390000  -3.9460000   2.0940000   7.9450000
  -3.8380000   3.4780000   6.3040000  -4.4080000   3.4080000   5.3770000
  -2.3860000   3.9170000   5.8850000  -2.3840000   4.5890000   4.8140000
  -4.5260000   4.4800000   7.2960000  -4.0150000   4.5190000   8.2580000
  -5.5630000   4.1640000   7.4140000  -4.4950000   5.4710000   6.8420000
  -1.2940000   3.5510000   6.5680000  -1.3890000   2.9540000   7.3770000
   0.1310000   3.7850000   6.2230000   0.1930000   4.8700000   6.2980000
   0.3680000   3.1990000   4.8170000   0.4250000   3.8880000   3.8170000
   1.1140000   3.3120000   7.2950000   0.9540000   2.2530000   7.4940000
   1.0550000   3.9320000   8.1900000   2.1460000   3.5370000   7.0240000
   0.2890000   1.8280000   4.6430000   0.1930000   1.2650000   5.4760000
   0.6010000   1.1140000   3.4160000   1.6360000   1.3410000   3.1610000
  -0.2260000   1.6300000   2.1860000   0.3330000   1.9900000   1.1910000
   0.4150000  -0.4090000   3.5810000  -0.6330000  -0.5860000   3.8220000
   0.7490000  -1.1710000   2.3220000  -0.0270000  -0.9250000   1.5970000
   0.5890000  -2.2300000   2.5230000   1.7390000  -0.9640000   1.9160000
   1.2590000  -1.0930000   4.6760000   1.0760000  -2.1590000   4.8150000
   0.9700000  -0.6430000   5.6260000   2.3260000  -0.8760000   4.6200000
  -1.5610000   1.7710000   2.2690000  -1.9680000   1.9790000   3.1700000
  -2.3890000   2.2100000   1.1640000  -2.1880000   1.5580000   0.3130000
  -2.0850000   3.6000000   0.7470000  -2.1740000   3.8740000  -0.4350000
  -3.8600000   2.0600000   1.6070000  -4.4800000   2.6320000   0.9170000
  -4.0510000   2.4340000   2.6130000  -4.3090000   0.6340000   1.5140000
  -3.7010000  -0.0120000   2.1460000  -4.2810000   0.3310000   0.4670000
  -5.7790000   0.4920000   1.9780000  -5.8710000   0.7890000   3.0230000
  -6.3290000   1.2940000   1.4850000  -6.3240000  -0.8530000   1.7820000
  -6.0130000  -1.5540000   2.4390000  -6.9810000  -1.3480000   0.7580000
  -7.3190000  -0.6800000  -0.2880000  -7.5050000  -1.3020000  -1.0610000
  -7.0730000   0.2850000  -0.4570000  -7.3770000  -2.5940000   0.6670000
  -7.2110000  -3.1970000   1.4600000  -7.5210000  -2.9310000  -0.2740000
  -1.8190000   4.5030000   1.6990000  -1.7470000   4.1780000   2.6530000
  -1.4010000   5.8600000   1.3190000  -2.0850000   6.3550000   0.6300000
  -0.0160000   5.9400000   0.6980000   0.2800000   6.5530000  -0.2860000
  -1.4160000   6.6280000   2.6460000  -2.4370000   6.8140000   2.9810000
  -0.8800000   6.0120000   3.3670000  -0.6570000   8.0120000   2.6510000
  -0.6650000   8.3490000   3.6880000   0.3880000   7.9750000   2.3420000
  -1.4740000   9.0400000   1.8430000  -2.5260000   8.7670000   1.2320000
  -1.0860000  10.2240000   1.8680000   0.9680000   5.2210000   1.3040000
   0.6960000   4.6300000   2.0770000   2.2840000   5.0920000   0.6580000
   2.7490000   6.0700000   0.5340000   2.2290000   4.4760000  -0.7530000
   2.8620000   4.9740000  -1.6360000   3.1910000   4.2790000   1.5670000
   4.1630000   4.0760000   1.1180000   2.6600000   3.3530000   1.7880000
   3.4030000   4.9630000   2.9880000   2.4230000   5.2870000   3.3400000
   3.9990000   3.9670000   3.9970000   4.0120000   4.3030000   5.0330000
   5.0320000   3.7080000   3.7650000   3.3630000   3.0820000   3.9740000
   4.3100000   6.2300000   2.9930000   4.1750000   6.7460000   2.0430000
   3.9890000   6.9000000   3.7910000   5.3780000   6.0120000   2.9740000
   1.4130000   3.5520000  -1.0150000   0.8890000   3.1100000  -0.2740000
   1.1960000   3.0310000  -2.3340000   2.1070000   2.6730000  -2.8130000
   0.6800000   4.1090000  -3.3110000   1.0220000   4.2090000  -4.4570000
   0.2730000   1.8320000  -2.1410000   0.5300000   1.1300000  -2.9350000
   0.5510000   1.2640000  -1.2530000  -0.7900000   2.0670000  -2.0890000
  -0.3330000   4.9210000  -2.9330000  -0.7690000   4.7420000  -2.0400000
  -0.9340000   6.0380000  -3.7320000  -1.4100000   5.6420000  -4.6290000
   0.1660000   7.0840000  -4.0900000   0.1220000   7.6130000  -5.1930000
  -1.9790000   6.7050000  -2.8750000  -1.4840000   7.1910000  -2.0340000
  -2.6030000   5.8580000  -2.5890000  -2.6980000   7.8750000  -3.5470000
  -3.4110000   7.5050000  -4.2840000  -2.0700000   8.5480000  -4.1310000
  -3.5760000   8.5000000  -2.4750000  -4.3750000   9.1230000  -2.8790000
  -4.0430000   7.6750000  -1.9370000  -2.8010000   9.4160000  -1.5220000
  -2.6030000   8.9350000  -0.6560000  -2.2270000  10.5780000  -1.8090000
  -2.2000000  11.1370000  -2.9590000  -2.7320000  10.7820000  -3.7410000
  -1.6680000  11.9900000  -3.0540000  -1.4800000  11.3220000  -1.0120000
  -0.9880000  12.0940000  -1.4390000  -1.3910000  11.0750000  -0.0370000
   1.0470000   7.3720000  -3.1160000   0.9860000   6.8000000  -2.2860000
   2.2010000   8.3010000  -3.2600000   1.7560000   9.1630000  -3.7570000
   3.1890000   7.6900000  -4.2060000   4.0050000   8.4150000  -4.7680000
   2.7520000   8.6460000  -1.8810000   3.7370000   9.0970000  -1.9960000
   2.9600000   7.6890000  -1.4020000   1.8310000   9.5050000  -0.9330000
   1.5040000  10.4000000  -1.4620000   0.8640000   9.0100000  -0.8480000
   2.2920000   9.9330000   0.4840000   3.3100000  10.3210000   0.4610000
   2.2400000   9.0500000   1.1210000   1.4330000  10.9840000   1.0580000
   0.7700000  10.8010000   1.7980000   1.5500000  12.3010000   0.8200000
   2.5480000  12.8470000   0.1850000   2.4370000  13.7890000  -0.1620000
   3.1400000  12.1700000  -0.2760000   0.7260000  13.0600000   1.4490000
   0.8040000  14.0460000   1.2460000   0.0730000  12.7120000   2.1370000
   3.1920000   6.3970000  -4.4690000   2.5870000   5.7970000  -3.9270000
   4.1070000   5.7670000  -5.4570000   5.0800000   6.2480000  -5.5550000
   3.4740000   5.7590000  -6.9050000   4.2190000   5.9680000  -7.8390000
   4.4050000   4.3100000  -4.9100000   5.0630000   4.4320000  -4.0500000
   4.8580000   3.6520000  -5.6520000   3.4550000   3.8780000  -4.5970000
   2.1080000   5.5480000  -6.9890000   1.6830000   5.3220000  -6.1020000
   1.3810000   5.6900000  -8.1780000   1.7610000   4.8800000  -8.8000000
   1.5890000   6.9960000  -8.9700000   1.7330000   6.9960000 -10.1700000
  -0.0950000   5.3330000  -7.9430000  -0.5500000   6.1760000  -7.4230000
  -0.6340000   5.2130000  -8.8830000  -0.1870000   4.4140000  -7.3640000
   1.7200000   8.1330000  -8.2910000   1.5020000   8.0850000  -7.3060000
   2.0550000   9.3950000  -8.8830000   1.2690000   9.6440000  -9.5960000
   3.4310000   9.2740000  -9.6040000   3.5810000   9.5050000 -10.8070000
   2.1090000  10.5390000  -7.7640000   2.6080000  10.2980000  -6.8260000
   1.1140000  10.9330000  -7.5570000   2.6560000  11.3800000  -8.1920000
   4.4210000   8.7470000  -8.8600000   4.3120000   8.5790000  -7.8700000
   5.7840000   8.4510000  -9.3210000   6.0510000   9.2710000  -9.9870000
   5.8840000   7.2610000 -10.2770000   6.9550000   6.7250000 -10.6140000
   6.6940000   8.5090000  -8.0540000   7.6890000   8.2120000  -8.3840000
   6.8000000   9.5560000  -7.7720000   6.3420000   7.8610000  -7.2520000
   4.7580000   6.8790000 -10.8790000   3.9710000   7.4880000 -10.7040000
   4.5540000   5.8340000 -11.8430000   5.4870000   5.8440000 -12.4070000
   3.7460000   5.9620000 -12.5630000   4.3960000   4.3790000 -11.3950000
   4.3520000   3.4990000 -12.2730000   4.2590000   4.0910000 -10.0570000
   4.1250000   4.8860000  -9.4490000   4.5620000   2.7820000  -9.3950000
   4.7920000   1.9770000 -10.0930000   3.3520000   2.3000000  -8.7680000
   3.2850000   2.2040000  -7.5500000   5.8150000   2.7990000  -8.5450000
   5.7020000   3.3710000  -7.6240000   6.9850000   3.4440000  -9.3340000
   7.1570000   2.9790000 -10.3050000   6.6600000   4.4570000  -9.5700000
   6.1320000   1.2730000  -8.1230000   5.3560000   0.9890000  -7.4120000
   6.2840000   0.6930000  -9.0340000   7.0430000   1.2810000  -7.5260000
   8.2610000   3.4690000  -8.5070000   8.6960000   2.4790000  -8.3740000
   8.9070000   4.1900000  -9.0070000   8.1150000   3.8790000  -7.5080000
   2.2500000   2.0110000  -9.4870000   2.3440000   1.8940000 -10.4860000
   1.0370000   1.5010000  -8.8360000   0.8130000   2.2450000  -8.0710000
   1.2500000   0.1960000  -8.0430000   1.7850000  -0.8340000  -8.5510000
  -0.1990000   1.4170000  -9.7220000  -0.2770000   2.3300000 -10.3130000
  -0.1930000   0.4970000 -10.3060000  -1.5120000   1.4780000  -8.9120000
  -1.5440000   2.3720000  -8.2890000  -1.6600000   0.6200000  -8.2550000
  -2.7410000   1.6120000  -9.8570000  -2.8720000   2.6220000 -10.5450000
  -3.4590000   0.6270000 -10.1510000   0.7080000   0.1520000  -6.8220000
   0.2210000   0.9550000  -6.4480000   0.4050000  -1.1260000  -6.2110000
   0.9120000  -1.8860000  -6.8060000  -1.0520000  -1.4170000  -6.2550000
  -1.8330000  -0.6260000  -5.7860000   0.8320000  -1.3350000  -4.7010000
   0.3820000  -0.5250000  -4.1280000   0.2980000  -2.2170000  -4.3470000
   2.3090000  -1.4230000  -4.3180000   2.7160000  -0.4480000  -4.5830000
   2.3570000  -1.7960000  -2.7970000   2.0850000  -2.8280000  -2.5740000
   1.8710000  -1.0860000  -2.1280000   3.3990000  -1.8010000  -2.4790000
   3.2090000  -2.4430000  -5.0360000   3.3930000  -2.1270000  -6.0630000
   2.8190000  -3.4590000  -5.0950000   4.1840000  -2.4260000  -4.5500000
  -1.4870000  -2.5340000  -6.8480000  -0.7370000  -3.0620000  -7.2710000
  -2.8670000  -3.0160000  -6.8920000  -3.6770000  -2.3490000  -7.1890000
  -3.2740000  -3.6000000  -5.5070000  -2.4790000  -3.8890000  -4.6110000
  -2.9830000  -4.2780000  -7.8150000  -4.0150000  -4.6100000  -7.9300000
  -2.2110000  -5.3740000  -7.3740000  -1.3000000  -5.0750000  -7.3430000
  -2.4430000  -3.7970000  -9.2280000  -1.4390000  -3.3760000  -9.1910000
  -3.1730000  -3.0750000  -9.5960000  -2.4870000  -4.6710000  -9.8770000
  -4.6180000  -3.6260000  -5.2450000  -5.2560000  -3.3600000  -5.9810000
  -5.1050000  -4.0650000  -3.8920000  -4.7050000  -3.4250000  -3.1060000
  -4.5840000  -5.4290000  -3.4890000  -4.5810000  -5.6690000  -2.2500000
  -6.5790000  -4.0010000  -3.8240000  -6.9560000  -4.3840000  -4.7730000
  -6.9410000  -4.6730000  -3.0460000  -7.1720000  -2.5800000  -3.4590000
  -7.7950000  -2.5370000  -2.3070000  -6.8890000  -1.5750000  -4.1580000
  -4.0850000  -6.3580000  -4.3220000  -4.2350000  -6.2920000  -5.3190000
  -3.6160000  -7.6320000  -3.7820000  -4.3400000  -8.1140000  -3.1250000
  -2.2440000  -7.4250000  -3.1560000  -1.8990000  -8.0860000  -2.1760000
  -3.3580000  -8.7370000  -4.8820000  -4.3050000  -8.7660000  -5.4210000
  -2.6250000  -8.3370000  -5.5830000  -2.7970000 -10.1320000  -4.4900000
  -3.2720000 -10.4800000  -3.5730000  -1.7510000  -9.9920000  -4.2180000
  -2.9700000 -11.2160000  -5.5810000  -2.4150000 -11.2080000  -6.7240000
  -3.8070000 -12.0950000  -5.2750000  -1.4060000  -6.5660000  -3.8200000
  -1.7630000  -5.9900000  -4.5690000   0.0030000  -6.2790000  -3.4220000
   0.4930000  -7.2490000  -3.3390000  -0.0440000  -5.4770000  -2.1190000
   0.8080000  -5.6590000  -1.1880000   0.7310000  -5.5730000  -4.5480000
   0.2320000  -4.6320000  -4.7790000   1.7780000  -5.4160000  -4.2880000
   0.8210000  -6.4550000  -5.8650000   1.5660000  -7.2490000  -5.8210000
  -0.1090000  -6.9870000  -6.0620000   1.1320000  -5.5820000  -7.0900000
   0.5130000  -4.5460000  -7.3590000   1.9770000  -6.0430000  -7.9260000
  -1.0560000  -4.6070000  -1.9040000  -1.7540000  -4.4610000  -2.6190000
  -1.2930000  -3.8910000  -0.6460000  -0.3240000  -3.4400000  -0.4330000
  -1.5770000  -4.8410000   0.4920000  -0.8580000  -4.8790000   1.4910000
  -2.3500000  -2.7720000  -0.9720000  -3.0370000  -3.1310000  -1.7390000
  -1.6040000  -1.6920000  -1.7150000  -0.9130000  -1.1730000  -1.0510000
  -1.1060000  -2.2340000  -2.5180000  -3.2040000  -2.2480000   0.2260000
  -4.0710000  -1.7360000  -0.1920000  -3.5140000  -3.0200000   0.9310000
  -2.6320000  -1.5380000   0.8240000  -2.6000000  -0.6740000  -2.4000000
  -3.0940000  -0.0110000  -1.6900000  -3.2860000  -1.2020000  -3.0630000
  -1.9910000  -0.0610000  -3.0640000  -2.6680000  -5.6210000   0.3280000
  -3.2000000  -5.4850000  -0.5200000  -3.0010000  -6.6610000   1.3830000
  -3.1420000  -6.1760000   2.3490000  -1.9040000  -7.7540000   1.6260000
  -1.8040000  -8.4020000   2.6590000  -4.3360000  -7.3410000   0.9220000
  -4.4830000  -7.4360000  -0.1540000  -4.4820000  -8.3290000   1.3580000
  -5.4120000  -6.4650000   1.5010000  -6.3510000  -6.7490000   1.0250000
  -5.3050000  -5.4270000   1.1880000  -5.5460000  -6.5890000   3.0110000
  -6.0850000  -7.5810000   3.5200000  -5.1230000  -5.6480000   3.7110000
  -1.0780000  -8.0530000   0.6370000  -1.3520000  -7.8090000  -0.3040000
   0.0740000  -8.8770000   0.7510000  -0.1570000  -9.8110000   1.2630000
   1.1300000  -8.2510000   1.6370000   1.7620000  -9.0390000   2.3720000
   0.7210000  -9.1290000  -0.6310000   1.7530000  -9.4700000  -0.5490000
   0.5870000  -8.2710000  -1.2890000   0.1580000 -10.3910000  -1.3460000
  -0.8670000 -10.2270000  -1.6800000   0.7750000 -10.6170000  -2.2160000
   0.0520000 -11.5860000  -0.4600000  -1.0300000 -12.0090000  -0.0940000
   1.0910000 -12.0840000  -0.0450000   1.3110000  -6.9220000   1.6650000
   0.8120000  -6.2770000   1.0690000   2.2890000  -6.2870000   2.6440000
   3.2080000  -6.8750000   2.6480000   1.8410000  -6.1160000   4.0340000
   2.5890000  -5.9450000   5.0300000   2.7260000  -4.8960000   2.0230000
   1.8360000  -4.4210000   1.6100000   3.7850000  -5.1910000   0.9500000
   3.5290000  -6.1220000   0.4450000   4.7660000  -5.3420000   1.4000000
   3.2250000  -3.8470000   2.9720000   4.1320000  -4.2640000   3.4090000
   3.4780000  -2.9790000   2.3630000   2.4300000  -3.5200000   3.6430000
   3.8990000  -4.1390000  -0.2300000   4.6350000  -4.5860000  -0.8990000
   4.2640000  -3.2230000   0.2340000   2.9430000  -4.1310000  -0.7530000
   0.5240000  -6.0410000   4.1290000  -0.1090000  -6.0520000   3.3420000
  -0.0930000  -5.9910000   5.4580000   0.5200000  -5.3160000   6.0550000
  -0.2830000  -7.3870000   6.1710000  -0.3830000  -7.3910000   7.4410000
  -1.4780000  -5.3570000   5.2050000  -2.1260000  -5.3650000   6.0810000
  -1.9590000  -5.9660000   4.4400000  -1.3480000  -3.8620000   4.8470000
  -0.5110000  -3.5960000   4.2010000  -2.6260000  -3.4160000   4.0470000
  -2.6320000  -3.7630000   3.0130000  -3.5280000  -3.7850000   4.5350000
  -2.5690000  -2.3290000   4.1040000  -1.2140000  -3.0980000   6.1440000
  -2.2010000  -3.1080000   6.6060000  -0.8500000  -2.0900000   5.9440000
  -0.4820000  -3.5530000   6.8110000  -0.0600000  -8.5470000   5.5820000
   0.0020000  -8.5720000   4.5740000   0.0750000  -9.8430000   6.3510000
  -0.8020000  -9.9650000   6.9880000   1.3870000  -9.9730000   7.3020000
   1.1690000 -10.3490000   8.4730000  -0.0390000 -11.0070000   5.4050000
   0.0540000 -11.9170000   5.9980000   0.7960000 -10.8660000   4.7190000
  -1.4720000 -11.0110000   4.7980000  -1.7200000  -9.9840000   4.5320000
  -2.1520000 -11.3830000   5.5640000  -1.4720000 -11.9390000   3.6040000
  -0.6840000 -11.5780000   2.9430000  -1.2080000 -12.9420000   3.9370000
  -2.8800000 -11.9860000   2.9320000  -3.6230000 -11.7800000   3.7010000
  -3.0730000 -13.0030000   2.5910000  -2.9720000 -11.1250000   1.7600000
  -2.5060000 -11.5100000   0.9510000  -2.6720000 -10.1930000   2.0070000
  -3.9700000 -11.0620000   1.6160000   2.4300000  -9.4200000   6.8880000
   5.2750000   1.2380000  -0.6550000   4.4560000   0.8170000   0.4730000
   5.0540000   0.1790000   1.6170000   4.1340000  -0.4030000   2.4300000
   4.5670000  -1.0780000   3.5910000   5.8970000  -1.1880000   3.9390000
   6.2690000  -1.9120000   5.1310000   6.9590000  -2.9320000   5.0150000
   5.7370000  -1.4940000   6.4670000   5.8140000  -0.2080000   6.9720000
   5.2900000   0.1190000   8.2530000   4.6740000  -0.8090000   9.0390000
   4.5550000  -2.0920000   8.5620000   5.1110000  -2.4160000   7.3020000
   6.8400000  -0.6020000   3.0980000   8.1560000  -0.6800000   3.4140000
   6.4190000   0.0810000   1.9250000   6.1957290   1.7112929  -0.2831775
   5.5345883   0.3615795  -1.2669650   4.7133671   1.9591570  -1.2669650
   3.0628585  -0.3485459   2.1856835   3.8115868  -1.5359837   4.2464402
   6.2910940   0.5788119   6.3692494   5.3845570   1.1514561   8.6205504
   4.2820431  -0.5374327  10.0302724   4.0331622  -2.8588691   9.1532673
   5.0447576  -3.4597749   6.9611982   8.8326902  -0.2661659   2.8216051
   7.1658378   0.5342038   1.2565394
