
  431  0.0000000e+00
   4.2030000 -17.1010000  16.5160000   4.5750000 -17.3660000  17.4170000
   4.5420000 -16.2550000  16.0810000   3.1950000 -17.0550000  16.5570000
   4.6050000 -18.1800000  15.6110000   4.3450000 -19.1580000  16.0160000
   5.6370000 -18.1800000  15.2610000   3.9090000 -18.1230000  14.2970000
   3.8670000 -17.0380000  13.6940000   3.3220000 -19.2170000  13.8440000
   3.3160000 -20.1050000  14.3270000   2.8990000 -19.3070000  12.5390000
   3.7950000 -19.2380000  11.9220000   1.8310000 -18.1910000  12.2070000
   2.0010000 -17.4910000  11.1710000   2.2720000 -20.7090000  12.4050000
   3.0270000 -21.4320000  12.7130000   1.4270000 -20.8040000  13.0870000
   2.1000000 -20.8640000  11.3400000   0.7940000 -17.8910000  13.0260000
   0.7380000 -18.4150000  13.8880000  -0.1870000 -16.8710000  12.7240000
  -0.6100000 -17.0600000  11.7370000   0.3510000 -15.4630000  12.7630000
   0.0540000 -14.6710000  11.8790000  -1.3700000 -16.9650000  13.6270000
  -2.1190000 -16.2050000  13.4070000  -1.0930000 -16.7600000  14.6620000
  -1.7250000 -17.9760000  13.4240000   1.2590000 -15.1420000  13.6500000
   1.5410000 -15.8440000  14.3190000   1.7900000 -13.8040000  13.9180000
   0.9480000 -13.1400000  14.1110000   2.6750000 -13.4040000  12.6940000
   2.5420000 -12.3100000  12.2530000   2.5360000 -13.9250000  15.2590000
   1.8780000 -13.6090000  16.0690000   3.4760000 -13.3760000  15.2980000
   2.9000000 -14.9260000  15.4920000   3.4380000 -14.3440000  12.0800000
   3.4620000 -15.2450000  12.5370000   4.2160000 -14.0570000  10.8440000
   4.5530000 -13.0360000  11.0200000   3.4670000 -14.0450000   9.5450000
   3.8960000 -13.2340000   8.6990000   5.3240000 -15.0780000  10.8200000
   4.7750000 -16.0040000  10.9910000   6.1410000 -15.1420000   9.5200000
   7.0510000 -15.7240000   9.6640000   5.5330000 -15.6140000   8.7480000
   6.3250000 -14.1320000   9.1530000   6.3810000 -14.9390000  12.0380000
   5.8210000 -15.0660000  12.9640000   7.0700000 -15.7830000  12.0640000
   6.9080000 -13.9880000  12.1120000   2.3460000 -14.7330000   9.3770000
   2.0030000 -15.3280000  10.1170000   1.4600000 -14.5400000   8.2010000
   2.1200000 -14.4170000   7.3420000   0.6990000 -13.2000000   8.4870000
   0.3890000 -12.4450000   7.5730000   0.5740000 -15.8090000   8.1390000
   0.0170000 -15.9690000   9.0620000   1.2120000 -16.6670000   7.9240000
  -0.0930000 -15.6190000   7.2990000   0.4460000 -12.7740000   9.7310000
   0.5640000 -13.4240000  10.4950000  -0.0790000 -11.4240000  10.0310000
  -0.9360000 -11.2120000   9.3920000   1.0140000 -10.3380000   9.7950000
   0.6330000  -9.3190000   9.1810000  -0.4900000 -11.4440000  11.4760000
   0.2300000 -11.8790000  12.1690000  -1.4650000 -11.9290000  11.4950000
  -0.5780000 -10.3990000  11.7760000   2.3060000 -10.5810000  10.0880000
   2.5210000 -11.3920000  10.6500000   3.3530000  -9.6130000   9.8070000
   3.0940000  -8.6180000  10.1680000   3.4350000  -9.4330000   8.3120000
   3.4520000  -8.2540000   7.8520000   4.7440000 -10.0080000  10.3620000
   5.4660000  -9.2030000  10.2220000   4.9880000 -10.9290000   9.8320000
   4.7730000 -10.2380000  11.4270000   3.3150000 -10.5140000   7.4880000
   3.3650000 -11.4270000   7.9170000   3.1980000 -10.4450000   5.9690000
   3.9980000  -9.7350000   5.7620000   1.9580000  -9.7160000   5.3430000
   2.0390000  -9.1850000   4.2450000   3.4440000 -11.7800000   5.2730000
   2.5610000 -12.4190000   5.2630000   3.5240000 -11.5880000   4.2040000
   4.7540000 -12.5540000   5.6560000   4.8030000 -12.4960000   6.7440000
   4.6440000 -14.0580000   5.2940000   5.6630000 -14.4450000   5.3030000
   4.0600000 -14.1790000   4.3820000   4.2140000 -14.6090000   6.1300000
   5.8930000 -11.8570000   5.0050000   6.8470000 -12.3390000   5.2230000
   5.7960000 -11.6910000   3.9320000   6.0090000 -10.9170000   5.5440000
   0.7350000  -9.8960000   5.8330000   0.6480000 -10.5420000   6.6040000
  -0.4210000  -9.3610000   5.1810000  -0.3200000  -9.5140000   4.1060000
  -0.4030000  -7.9020000   5.4480000  -0.8780000  -7.1440000   4.5730000
  -1.7540000  -9.8930000   5.7280000  -2.6690000  -9.4140000   5.3800000
  -1.8200000 -10.9730000   5.5910000  -1.7630000  -9.8420000   6.8160000
   0.2280000  -7.3670000   6.5770000   0.7340000  -7.9560000   7.2230000
   0.3160000  -5.8620000   6.6730000  -0.5670000  -5.3470000   6.2950000
   1.4960000  -5.2780000   5.8480000   1.4050000  -4.1580000   5.3720000
   0.5460000  -5.5360000   8.1280000   1.5480000  -5.8100000   8.4570000
   0.4190000  -4.4540000   8.1810000  -0.1450000  -6.0340000   8.8080000
   2.4840000  -6.0640000   5.4830000   2.4990000  -7.0410000   5.7400000
   3.4970000  -5.7290000   4.5400000   3.8950000  -4.7270000   4.7040000
   3.0870000  -5.7170000   2.9840000   3.5860000  -4.9130000   2.2260000
   4.5560000  -6.7450000   4.8100000   5.4230000  -6.3860000   4.2540000
   4.7980000  -6.8000000   5.8710000   4.2060000  -7.6960000   4.4080000
   2.0820000  -6.4850000   2.5200000   1.7320000  -7.1760000   3.1680000
   1.3570000  -6.4640000   1.2830000   1.9040000  -6.5690000   0.3460000
   0.7630000  -7.3670000   1.4250000   0.4680000  -5.2550000   1.2420000
   0.8410000  -4.4240000   0.4220000  -0.4870000  -5.0050000   2.1110000
  -0.4800000  -5.6830000   2.8590000  -1.5040000  -3.9470000   1.9410000
  -2.1260000  -4.1450000   1.0680000  -0.8630000  -2.5570000   1.8040000
  -1.2220000  -1.8510000   0.8500000  -2.4050000  -3.9290000   3.1930000
  -1.7230000  -3.7440000   4.0230000  -3.4320000  -2.7950000   3.2440000
  -2.9230000  -1.8310000   3.2550000  -4.0130000  -2.9610000   4.1510000
  -4.2100000  -2.8690000   2.4850000  -3.2120000  -5.2150000   3.4040000
  -4.0830000  -5.1930000   2.7490000  -3.4890000  -5.4130000   4.4400000
  -2.5560000  -6.0420000   3.1330000   0.1110000  -2.2510000   2.6040000
   0.4490000  -2.9150000   3.2860000   0.9310000  -1.0400000   2.5240000
   0.2310000  -0.2090000   2.6050000   1.7920000  -0.8930000   1.2560000
   1.9590000   0.1700000   0.6790000   1.8040000  -0.9780000   3.7890000
   1.1800000  -1.1050000   4.6740000   2.5410000  -1.7710000   3.6660000
   2.2480000   0.0180000   3.7830000   2.3700000  -1.9990000   0.7660000
   2.4020000  -2.8880000   1.2440000   2.9860000  -1.9400000  -0.6040000
   3.7680000  -1.1800000  -0.5800000   1.9430000  -1.6590000  -1.7660000
   2.1940000  -0.9300000  -2.6810000   3.7110000  -3.2650000  -0.9340000
   4.2260000  -3.2380000  -1.8940000   2.9540000  -3.9860000  -1.2450000
   4.3930000  -3.5680000  -0.1400000   0.7480000  -2.2440000  -1.6600000
   0.4950000  -2.7180000  -0.8040000  -0.3140000  -2.0090000  -2.6750000
   0.0040000  -2.2510000  -3.6890000  -0.9030000  -0.5570000  -2.5860000
  -1.0690000   0.0970000  -3.5950000  -1.5380000  -2.9210000  -2.3980000
  -1.7570000  -2.9400000  -1.3310000  -2.8380000  -2.5320000  -3.1740000
  -2.6250000  -2.3760000  -4.2310000  -3.2520000  -1.5670000  -2.8820000
  -3.6410000  -3.2680000  -3.1320000  -1.0840000  -4.3320000  -2.6130000
  -0.3170000  -4.4940000  -1.8560000  -1.8980000  -5.0490000  -2.5030000
  -0.6270000  -4.3440000  -3.6030000  -1.0160000  -0.0040000  -1.3360000
  -0.9010000  -0.5500000  -0.4950000  -1.3740000   1.3770000  -1.1210000
  -2.3680000   1.4690000  -1.5590000  -0.3530000   2.3200000  -1.7730000
  -0.7220000   3.4010000  -2.2740000  -1.5160000   1.5470000   0.3760000
  -2.1630000   0.7030000   0.6160000  -0.6130000   1.3480000   0.9540000
  -1.9210000   2.5130000   0.6780000   0.9760000   2.0010000  -1.6330000
   1.3130000   1.3390000  -0.9480000   1.9230000   3.0050000  -2.0990000
   1.6670000   3.9490000  -1.6190000   1.8050000   3.1710000  -3.6400000
   1.8940000   4.2780000  -4.2230000   3.3120000   2.5830000  -1.7290000
   3.9190000   3.4280000  -2.0530000   3.5210000   1.6590000  -2.2690000
   3.3180000   2.3250000  -0.6700000   1.5270000   2.0870000  -4.4220000
   1.6130000   1.1850000  -3.9750000   1.3210000   2.2180000  -5.9150000
   2.1510000   2.8410000  -6.2480000  -0.0610000   2.7960000  -6.2270000
  -0.2180000   3.6430000  -7.1370000   1.4670000   0.8250000  -6.5210000
   0.9450000   0.0680000  -5.9350000   1.0200000   0.5770000  -7.9420000
  -0.0520000   0.4550000  -8.0970000   1.4030000   1.3590000  -8.5970000
   1.4200000  -0.3400000  -8.3760000   2.9460000   0.5080000  -6.4440000
   3.2230000  -0.5320000  -6.6200000   3.3570000   0.7790000  -5.4710000
   3.4860000   1.0500000  -7.2200000  -1.0920000   2.4410000  -5.4730000
  -1.0410000   1.6470000  -4.8510000  -2.4010000   3.0390000  -5.6160000
  -2.7770000   2.8550000  -6.6220000  -2.4300000   4.5280000  -5.3230000
  -3.2240000   5.1610000  -6.0090000  -3.3420000   2.3110000  -4.6440000
  -3.2370000   1.2340000  -4.7770000  -2.8430000   2.4300000  -3.6820000
  -4.3690000   2.6270000  -4.8300000  -1.6140000   5.1050000  -4.3670000
  -1.0450000   4.5490000  -3.7440000  -1.7160000   6.5280000  -4.0600000
  -2.7750000   6.7880000  -4.0480000  -0.9120000   7.3170000  -5.0960000
  -1.3430000   8.3840000  -5.5570000  -1.0660000   6.7420000  -2.6710000
  -0.9900000   7.8040000  -2.4400000  -1.7310000   6.2680000  -1.9500000
  -0.0660000   6.3090000  -2.7050000   0.2580000   6.7590000  -5.5340000
   0.6420000   5.9250000  -5.1130000   1.1080000   7.3810000  -6.4940000
   1.2900000   8.3990000  -6.1510000   0.4590000   7.4200000  -7.8620000
   0.6030000   8.4280000  -8.5070000   2.4720000   6.6610000  -6.6290000
   3.0090000   6.8800000  -5.7070000   3.0370000   6.8900000  -7.5330000
   2.3350000   5.5790000  -6.6290000  -0.3660000   6.4270000  -8.2190000
  -0.3360000   5.6200000  -7.6120000  -1.1500000   6.4900000  -9.4540000
  -0.4570000   6.7320000 -10.2600000  -2.2310000   7.5710000  -9.3850000
  -2.4840000   8.2460000 -10.3510000  -1.6950000   5.0750000  -9.7650000
  -2.3560000   4.7680000  -8.9540000  -0.8170000   4.4560000  -9.9500000
  -2.2490000   5.1600000 -10.7000000  -2.9720000   7.5570000  -8.2770000
  -2.7870000   6.9030000  -7.5300000  -3.9730000   8.6170000  -8.0680000
  -4.7260000   8.5260000  -8.8510000  -3.3800000  10.0000000  -8.2100000
  -4.0570000  10.8660000  -8.6760000  -4.5940000   8.5030000  -6.6610000
  -3.8080000   8.4470000  -5.9080000  -5.2720000   7.6500000  -6.6340000
  -5.2690000   9.3280000  -6.4330000  -2.1380000  10.1940000  -7.6410000
  -1.7410000   9.4800000  -7.0470000  -1.4470000  11.4930000  -7.6750000
  -2.1880000  12.2570000  -7.4390000  -0.9150000  11.7760000  -9.0740000
  -1.1730000  12.9430000  -9.5680000  -0.3810000  11.5600000  -6.6080000
  -0.8530000  11.3380000  -5.6510000   0.3770000  10.7990000  -6.7960000
   0.2980000  12.9810000  -6.5560000   0.8450000  13.1230000  -7.4880000
  -0.6140000  14.1590000  -6.2220000  -0.9470000  14.1250000  -5.1850000
  -1.4370000  14.1710000  -6.9360000  -0.0370000  15.0710000  -6.3770000
   1.3740000  12.8460000  -5.5040000   2.2490000  12.2850000  -5.8320000
   1.7210000  13.8160000  -5.1480000   1.0510000  12.2270000  -4.6670000
  -0.3880000  10.7360000  -9.7670000  -0.3200000   9.8560000  -9.2770000
   0.1070000  10.8340000 -11.1890000   0.9090000  11.5680000 -11.1160000
  -0.9940000  11.4310000 -12.1330000  -0.7990000  12.3910000 -12.8650000
   0.6840000   9.5650000 -11.6920000   1.4620000   9.7520000 -12.4320000
   0.9970000   8.9900000 -10.8200000  -0.0200000   8.9930000 -12.2950000
  -2.2100000  10.9570000 -11.9770000  -2.3610000  10.2200000 -11.3030000
  -3.3950000  11.3760000 -12.6940000  -3.0940000  11.3480000 -13.7420000
  -3.8520000  12.8650000 -12.4000000  -4.1890000  13.6170000 -13.3840000
  -4.6050000  10.3790000 -12.4620000  -5.0760000  10.4380000 -11.4810000
  -5.3230000  10.5130000 -13.2710000  -4.1640000   9.3830000 -12.4230000
  -3.7640000  13.2310000 -11.1560000  -3.6240000  12.4040000 -10.5940000
  -4.0870000  14.5110000 -10.5870000  -5.0350000  14.7760000 -11.0550000
  -3.1180000  15.5910000 -11.1010000  -3.5610000  16.5840000 -11.6640000
  -4.3850000  14.4070000  -9.1020000  -3.4500000  14.1370000  -8.6120000
  -5.1350000  13.6400000  -8.9090000  -4.8040000  15.6600000  -8.4180000
  -3.9840000  16.3740000  -8.4920000  -6.1180000  16.2450000  -8.9790000
  -6.1700000  16.4800000 -10.0420000  -6.8830000  15.4800000  -8.8430000
  -6.4420000  17.1490000  -8.4620000  -5.0410000  15.3500000  -6.9350000
  -5.0330000  16.2940000  -6.3890000  -4.2330000  14.7090000  -6.5820000
  -6.0170000  14.8940000  -6.7710000  -1.7950000  15.3500000 -11.0180000
  -1.5630000  14.4690000 -10.5840000  -0.7230000  16.2810000 -11.5460000
  -0.8170000  17.3150000 -11.2120000  -0.8710000  16.3730000 -13.0600000
  -0.6580000  17.4540000 -13.6610000   0.6730000  15.7100000 -11.1980000
   1.3690000  16.3840000 -11.6970000   0.8570000  14.7180000 -11.6090000
   0.8990000  15.6430000  -9.6530000   0.4020000  14.8110000  -9.1550000
   2.4000000  15.3130000  -9.3510000   2.5440000  15.2170000  -8.2740000
   2.9540000  16.2110000  -9.6280000   2.7290000  14.3850000  -9.8190000
   0.4890000  16.9350000  -8.9350000   0.9180000  16.9710000  -7.9340000
   0.8150000  17.8460000  -9.4380000  -0.5870000  17.0550000  -8.8030000
  -1.3210000  15.3260000 -13.7960000  -1.2920000  14.4090000 -13.3730000
  -1.5550000  15.3190000 -15.2390000  -0.6450000  15.7140000 -15.6890000
  -2.7480000  16.2030000 -15.6330000  -2.7900000  16.5940000 -16.7970000
  -1.6880000  13.8350000 -15.7180000  -2.3890000  13.3430000 -15.0430000
  -1.9580000  13.7350000 -16.7690000  -0.6550000  13.4900000 -15.7410000
  -3.7500000  16.4730000 -14.8250000  -3.8690000  15.8140000 -14.0680000
  -4.8550000  17.3930000 -15.0820000  -5.2440000  17.2940000 -16.0950000
  -4.5050000  18.8250000 -14.7900000  -5.1480000  19.7950000 -15.2450000
  -5.9340000  16.9710000 -14.0930000  -6.6700000  17.7720000 -14.0150000
  -5.5870000  16.9270000 -13.0600000  -6.4530000  16.0430000 -14.3300000
  -3.3440000  19.1800000 -14.1540000  -2.7140000  18.4240000 -13.9250000
  -2.9540000  20.4320000 -13.5960000  -3.8600000  20.8340000 -13.1420000
  -2.5630000  21.4150000 -14.7050000  -3.0250000  22.6080000 -14.7050000
  -1.8590000  20.1150000 -12.5590000  -1.5890000  20.9090000 -11.8630000
  -2.0810000  19.2860000 -11.8870000  -0.9350000  19.8540000 -13.0760000
  -1.8350000  21.0720000 -15.6000000  -3.3940000   1.3090000   4.2740000
  -2.1330000   0.6170000   4.7420000  -2.3510000   0.0130000   6.0410000
  -1.2550000  -0.8820000   6.1550000  -1.3690000  -1.7820000   7.2250000
  -0.3030000  -1.7780000   8.2670000   0.9430000  -1.3040000   7.7980000
  -1.7290000  -2.9510000   6.9160000  -2.7200000  -3.3650000   7.6310000
  -3.5390000  -2.5830000   8.0320000  -2.8240000  -4.7390000   7.9220000
  -2.9660000  -5.5350000   6.9600000  -3.2330000  -6.8800000   7.0940000
  -4.0830000  -7.5120000   6.2720000  -4.3590000  -8.8340000   6.3910000
  -3.7020000  -9.5200000   7.3700000  -3.9260000 -10.8000000   7.5490000
  -2.7880000 -11.5330000   7.8460000  -2.8490000  -8.9510000   8.1960000
  -2.6320000  -7.6210000   8.0760000  -3.9809705   1.6311123   5.1467596
  -3.1269352   2.1869381   3.6674515  -3.9911145   0.6121835   3.6674515
  -1.8567107  -0.1644777   4.0188424  -1.3230178   1.3571906   4.8197608
  -2.3302685   0.7696792   6.8391270  -3.3297640  -0.4801043   6.1351761
  -1.1804102  -1.4598609   5.2219870  -0.3600954  -0.2708628   6.3438306
  -2.2201748  -1.3117097   7.7391288  -0.6300876  -1.1345187   9.0970274
  -0.1542784  -2.8216228   8.5812186   1.5879683  -1.0586429   8.6546305
   1.4247846  -2.0816593   7.1871566   0.7860982  -0.4027497   7.1871566
  -2.7822442  -5.1039848   8.9588426  -2.8706310  -5.1303684   5.9415806
  -4.5738746  -6.9374761   5.4726475  -5.0811831  -9.3316769   5.7270955
  -2.6737632 -11.6065814   8.9375749  -2.8798270 -12.5421855   7.4180836
  -1.9071285 -11.0320479   7.4180836  -2.3266771  -9.5413282   8.9632623
  -1.9554123  -7.1222045   8.7855295
