
  505  0.0000000e+00
  -6.3300000  -2.2700000  11.5300000  -7.0100000  -2.8900000  11.9500000
  -6.4400000  -2.0900000  10.5500000  -6.3800000  -1.3800000  12.0100000
  -4.9500000  -2.7900000  11.7600000  -4.9500000  -3.0100000  12.8300000
  -4.7000000  -3.6300000  11.1200000  -3.9200000  -1.6700000  11.5800000
  -4.0900000  -0.7800000  10.7500000  -2.8100000  -1.7300000  12.3900000
  -1.9500000  -0.6400000  12.7100000  -2.5300000   0.1100000  13.2400000
  -1.3500000   0.0500000  11.4800000  -1.1200000   1.2800000  11.4300000
  -0.7800000  -1.1800000  13.6100000  -0.7400000  -0.6300000  14.5500000
   0.1200000  -1.1000000  13.0100000  -1.1500000  -2.6400000  13.9100000
  -0.3700000  -3.3700000  13.6800000  -1.3200000  -2.6700000  14.9900000
  -2.5300000  -2.8800000  13.2700000  -2.5700000  -3.8000000  12.6900000
  -3.3700000  -3.0300000  13.9500000  -1.2000000  -0.7100000  10.3900000
  -1.4400000  -1.6800000  10.5700000  -0.4800000  -0.4100000   9.1500000
   0.0200000   0.5300000   9.3500000  -1.3700000  -0.1800000   7.9800000
  -0.8200000   0.1700000   6.9400000   0.6600000  -1.3900000   8.9900000
   0.2200000  -2.3700000   8.8000000   1.2700000  -1.2000000   8.1100000
   1.6200000  -1.4500000  10.2200000   2.4600000  -0.3900000  10.5700000
   2.3600000   0.5800000  10.1000000   1.7700000  -2.6600000  10.9000000
   1.1900000  -3.5400000  10.6500000   3.4500000  -0.5200000  11.5500000
   4.2100000   0.2200000  11.7800000   2.7500000  -2.7800000  11.8900000
   2.9900000  -3.7300000  12.3500000   3.6100000  -1.6900000  12.1800000
   4.3600000  -1.8500000  12.9500000  -2.7100000  -0.3800000   8.1200000
  -3.1300000  -0.6200000   9.0000000  -3.6500000  -0.3500000   6.9800000
  -3.3000000  -1.0700000   6.2400000  -3.6300000   1.0200000   6.2500000
  -3.3800000   1.1100000   4.9900000  -5.0500000  -0.7700000   7.4600000
  -4.9000000  -1.7100000   7.9800000  -5.3200000  -0.1200000   8.2900000
  -6.1300000  -0.8500000   6.4400000  -6.0700000   0.0500000   5.8200000
  -5.8400000  -1.6800000   5.8000000  -7.4600000  -1.1500000   6.9400000
  -8.4100000  -0.2700000   6.8800000  -7.6500000  -2.2400000   7.5700000
  -3.8700000   2.1400000   6.9400000  -3.9500000   2.0900000   7.9500000
  -3.8400000   3.4800000   6.3000000  -4.4100000   3.4100000   5.3800000
  -2.3900000   3.9200000   5.8800000  -2.3800000   4.5900000   4.8100000
  -4.5300000   4.4800000   7.3000000  -4.0100000   4.5200000   8.2600000
  -5.5600000   4.1600000   7.4100000  -4.4900000   5.4700000   6.8400000
  -1.2900000   3.5500000   6.5700000  -1.3900000   2.9500000   7.3800000
   0.1300000   3.7800000   6.2200000   0.1900000   4.8700000   6.3000000
   0.3700000   3.2000000   4.8200000   0.4300000   3.8900000   3.8200000
   1.1100000   3.3100000   7.3000000   0.9500000   2.2500000   7.4900000
   1.0500000   3.9300000   8.1900000   2.1500000   3.5400000   7.0200000
   0.2900000   1.8300000   4.6400000   0.1900000   1.2700000   5.4800000
   0.6000000   1.1100000   3.4200000   1.6400000   1.3400000   3.1600000
  -0.2300000   1.6300000   2.1900000   0.3300000   1.9900000   1.1900000
   0.4100000  -0.4100000   3.5800000  -0.6300000  -0.5900000   3.8200000
   0.7500000  -1.1700000   2.3200000  -0.0300000  -0.9200000   1.6000000
   0.5900000  -2.2300000   2.5200000   1.7400000  -0.9600000   1.9200000
   1.2600000  -1.0900000   4.6800000   1.0800000  -2.1600000   4.8100000
   0.9700000  -0.6400000   5.6300000   2.3300000  -0.8800000   4.6200000
  -1.5600000   1.7700000   2.2700000  -1.9700000   1.9800000   3.1700000
  -2.3900000   2.2100000   1.1600000  -2.1900000   1.5600000   0.3100000
  -2.0800000   3.6000000   0.7500000  -2.1700000   3.8700000  -0.4300000
  -3.8600000   2.0600000   1.6100000  -4.4800000   2.6300000   0.9200000
  -4.0500000   2.4300000   2.6100000  -4.3100000   0.6300000   1.5100000
  -3.7000000  -0.0100000   2.1500000  -4.2800000   0.3300000   0.4700000
  -5.7800000   0.4900000   1.9800000  -5.8700000   0.7900000   3.0200000
  -6.3300000   1.2900000   1.4900000  -6.3200000  -0.8500000   1.7800000
  -6.0100000  -1.5500000   2.4400000  -6.9800000  -1.3500000   0.7600000
  -7.3200000  -0.6800000  -0.2900000  -7.5100000  -1.3000000  -1.0600000
  -7.0700000   0.2800000  -0.4600000  -7.3800000  -2.5900000   0.6700000
  -7.2100000  -3.2000000   1.4600000  -7.5200000  -2.9300000  -0.2700000
  -1.8200000   4.5000000   1.7000000  -1.7500000   4.1800000   2.6500000
  -1.4000000   5.8600000   1.3200000  -2.0800000   6.3600000   0.6300000
  -0.0200000   5.9400000   0.7000000   0.2800000   6.5500000  -0.2900000
  -1.4200000   6.6300000   2.6500000  -2.4400000   6.8100000   2.9800000
  -0.8800000   6.0100000   3.3700000  -0.6600000   8.0100000   2.6500000
  -0.6700000   8.3500000   3.6900000   0.3900000   7.9700000   2.3400000
  -1.4700000   9.0400000   1.8400000  -2.5300000   8.7700000   1.2300000
  -1.0900000  10.2200000   1.8700000   0.9700000   5.2200000   1.3000000
   0.7000000   4.6300000   2.0800000   2.2800000   5.0900000   0.6600000
   2.7500000   6.0700000   0.5300000   2.2300000   4.4800000  -0.7500000
   2.8600000   4.9700000  -1.6400000   3.1900000   4.2800000   1.5700000
   4.1600000   4.0800000   1.1200000   2.6600000   3.3500000   1.7900000
   3.4000000   4.9600000   2.9900000   2.4200000   5.2900000   3.3400000
   4.0000000   3.9700000   4.0000000   4.0100000   4.3000000   5.0300000
   5.0300000   3.7100000   3.7700000   3.3600000   3.0800000   3.9700000
   4.3100000   6.2300000   2.9900000   4.1800000   6.7500000   2.0400000
   3.9900000   6.9000000   3.7900000   5.3800000   6.0100000   2.9700000
   1.4100000   3.5500000  -1.0200000   0.8900000   3.1100000  -0.2700000
   1.2000000   3.0300000  -2.3300000   2.1100000   2.6700000  -2.8100000
   0.6800000   4.1100000  -3.3100000   1.0200000   4.2100000  -4.4600000
   0.2700000   1.8300000  -2.1400000   0.5300000   1.1300000  -2.9300000
   0.5500000   1.2600000  -1.2500000  -0.7900000   2.0700000  -2.0900000
  -0.3300000   4.9200000  -2.9300000  -0.7700000   4.7400000  -2.0400000
  -0.9300000   6.0400000  -3.7300000  -1.4100000   5.6400000  -4.6300000
   0.1700000   7.0800000  -4.0900000   0.1200000   7.6100000  -5.1900000
  -1.9800000   6.7100000  -2.8700000  -1.4800000   7.1900000  -2.0300000
  -2.6000000   5.8600000  -2.5900000  -2.7000000   7.8800000  -3.5500000
  -3.4100000   7.5000000  -4.2800000  -2.0700000   8.5500000  -4.1300000
  -3.5800000   8.5000000  -2.4800000  -4.3700000   9.1200000  -2.8800000
  -4.0400000   7.6700000  -1.9400000  -2.8000000   9.4200000  -1.5200000
  -2.6000000   8.9300000  -0.6600000  -2.2300000  10.5800000  -1.8100000
  -2.2000000  11.1400000  -2.9600000  -2.7300000  10.7800000  -3.7400000
  -1.6700000  11.9900000  -3.0500000  -1.4800000  11.3200000  -1.0100000
  -0.9900000  12.0900000  -1.4400000  -1.3900000  11.0700000  -0.0400000
   1.0500000   7.3700000  -3.1200000   0.9900000   6.8000000  -2.2900000
   2.2000000   8.3000000  -3.2600000   1.7600000   9.1600000  -3.7600000
   3.1900000   7.6900000  -4.2100000   4.0000000   8.4100000  -4.7700000
   2.7500000   8.6500000  -1.8800000   3.7400000   9.1000000  -2.0000000
   2.9600000   7.6900000  -1.4000000   1.8300000   9.5000000  -0.9300000
   1.5000000  10.4000000  -1.4600000   0.8600000   9.0100000  -0.8500000
   2.2900000   9.9300000   0.4800000   3.3100000  10.3200000   0.4600000
   2.2400000   9.0500000   1.1200000   1.4300000  10.9800000   1.0600000
   0.7700000  10.8000000   1.8000000   1.5500000  12.3000000   0.8200000
   2.5500000  12.8500000   0.1800000   2.4400000  13.7900000  -0.1600000
   3.1400000  12.1700000  -0.2800000   0.7300000  13.0600000   1.4500000
   0.8000000  14.0500000   1.2500000   0.0700000  12.7100000   2.1400000
   3.1900000   6.4000000  -4.4700000   2.5900000   5.8000000  -3.9300000
   4.1100000   5.7700000  -5.4600000   5.0800000   6.2500000  -5.5500000
   3.4700000   5.7600000  -6.9000000   4.2200000   5.9700000  -7.8400000
   4.4100000   4.3100000  -4.9100000   5.0600000   4.4300000  -4.0500000
   4.8600000   3.6500000  -5.6500000   3.4500000   3.8800000  -4.6000000
   2.1100000   5.5500000  -6.9900000   1.6800000   5.3200000  -6.1000000
   1.3800000   5.6900000  -8.1800000   1.7600000   4.8800000  -8.8000000
   1.5900000   7.0000000  -8.9700000   1.7300000   7.0000000 -10.1700000
  -0.1000000   5.3300000  -7.9400000  -0.5500000   6.1800000  -7.4200000
  -0.6300000   5.2100000  -8.8800000  -0.1900000   4.4100000  -7.3600000
   1.7200000   8.1300000  -8.2900000   1.5000000   8.0900000  -7.3100000
   2.0500000   9.4000000  -8.8800000   1.2700000   9.6400000  -9.6000000
   3.4300000   9.2700000  -9.6000000   3.5800000   9.5100000 -10.8100000
   2.1100000  10.5400000  -7.7600000   2.6100000  10.3000000  -6.8300000
   1.1100000  10.9300000  -7.5600000   2.6600000  11.3800000  -8.1900000
   4.4200000   8.7500000  -8.8600000   4.3100000   8.5800000  -7.8700000
   5.7800000   8.4500000  -9.3200000   6.0500000   9.2700000  -9.9900000
   5.8800000   7.2600000 -10.2800000   6.9600000   6.7300000 -10.6100000
   6.6900000   8.5100000  -8.0500000   7.6900000   8.2100000  -8.3800000
   6.8000000   9.5600000  -7.7700000   6.3400000   7.8600000  -7.2500000
   4.7600000   6.8800000 -10.8800000   3.9700000   7.4900000 -10.7000000
   4.5500000   5.8300000 -11.8400000   5.4900000   5.8400000 -12.4100000
   3.7500000   5.9600000 -12.5600000   4.4000000   4.3800000 -11.4000000
   4.3500000   3.5000000 -12.2700000   4.2600000   4.0900000 -10.0600000
   4.1300000   4.8900000  -9.4500000   4.5600000   2.7800000  -9.4000000
   4.7900000   1.9800000 -10.0900000   3.3500000   2.3000000  -8.7700000
   3.2800000   2.2000000  -7.5500000   5.8200000   2.8000000  -8.5400000
   5.7000000   3.3700000  -7.6200000   6.9800000   3.4400000  -9.3300000
   7.1600000   2.9800000 -10.3000000   6.6600000   4.4600000  -9.5700000
   6.1300000   1.2700000  -8.1200000   5.3600000   0.9900000  -7.4100000
   6.2800000   0.6900000  -9.0300000   7.0400000   1.2800000  -7.5300000
   8.2600000   3.4700000  -8.5100000   8.7000000   2.4800000  -8.3700000
   8.9100000   4.1900000  -9.0100000   8.1100000   3.8800000  -7.5100000
   2.2500000   2.0100000  -9.4900000   2.3400000   1.8900000 -10.4900000
   1.0400000   1.5000000  -8.8400000   0.8100000   2.2500000  -8.0700000
   1.2500000   0.2000000  -8.0400000   1.7800000  -0.8300000  -8.5500000
  -0.2000000   1.4200000  -9.7200000  -0.2800000   2.3300000 -10.3100000
  -0.1900000   0.5000000 -10.3100000  -1.5100000   1.4800000  -8.9100000
  -1.5400000   2.3700000  -8.2900000  -1.6600000   0.6200000  -8.2600000
  -2.7400000   1.6100000  -9.8600000  -2.8700000   2.6200000 -10.5500000
  -3.4600000   0.6300000 -10.1500000   0.7100000   0.1500000  -6.8200000
   0.2200000   0.9500000  -6.4500000   0.4100000  -1.1300000  -6.2100000
   0.9100000  -1.8900000  -6.8100000  -1.0500000  -1.4200000  -6.2600000
  -1.8300000  -0.6300000  -5.7900000   0.8300000  -1.3400000  -4.7000000
   0.3800000  -0.5200000  -4.1300000   0.3000000  -2.2200000  -4.3500000
   2.3100000  -1.4200000  -4.3200000   2.7200000  -0.4500000  -4.5800000
   2.3600000  -1.8000000  -2.8000000   2.0900000  -2.8300000  -2.5700000
   1.8700000  -1.0900000  -2.1300000   3.4000000  -1.8000000  -2.4800000
   3.2100000  -2.4400000  -5.0400000   3.3900000  -2.1300000  -6.0600000
   2.8200000  -3.4600000  -5.1000000   4.1800000  -2.4300000  -4.5500000
  -1.4900000  -2.5300000  -6.8500000  -0.7400000  -3.0600000  -7.2700000
  -2.8700000  -3.0200000  -6.8900000  -3.6800000  -2.3500000  -7.1900000
  -3.2700000  -3.6000000  -5.5100000  -2.4800000  -3.8900000  -4.6100000
  -2.9800000  -4.2800000  -7.8200000  -4.0100000  -4.6100000  -7.9300000
  -2.2100000  -5.3700000  -7.3700000  -1.3000000  -5.0800000  -7.3400000
  -2.4400000  -3.8000000  -9.2300000  -1.4400000  -3.3800000  -9.1900000
  -3.1700000  -3.0800000  -9.6000000  -2.4900000  -4.6700000  -9.8800000
  -4.6200000  -3.6300000  -5.2400000  -5.2600000  -3.3600000  -5.9800000
  -5.1100000  -4.0700000  -3.8900000  -4.7000000  -3.4300000  -3.1100000
  -4.5800000  -5.4300000  -3.4900000  -4.5800000  -5.6700000  -2.2500000
  -6.5800000  -4.0000000  -3.8200000  -6.9600000  -4.3800000  -4.7700000
  -6.9400000  -4.6700000  -3.0500000  -7.1700000  -2.5800000  -3.4600000
  -7.8000000  -2.5400000  -2.3100000  -6.8900000  -1.5800000  -4.1600000
  -4.0900000  -6.3600000  -4.3200000  -4.2300000  -6.2900000  -5.3200000
  -3.6200000  -7.6300000  -3.7800000  -4.3400000  -8.1100000  -3.1300000
  -2.2400000  -7.4300000  -3.1600000  -1.9000000  -8.0900000  -2.1800000
  -3.3600000  -8.7400000  -4.8800000  -4.3100000  -8.7700000  -5.4200000
  -2.6300000  -8.3400000  -5.5800000  -2.8000000 -10.1300000  -4.4900000
  -3.2700000 -10.4800000  -3.5700000  -1.7500000  -9.9900000  -4.2200000
  -2.9700000 -11.2200000  -5.5800000  -2.4200000 -11.2100000  -6.7200000
  -3.8100000 -12.0900000  -5.2700000  -1.4100000  -6.5700000  -3.8200000
  -1.7600000  -5.9900000  -4.5700000   0.0000000  -6.2800000  -3.4200000
   0.4900000  -7.2500000  -3.3400000  -0.0400000  -5.4800000  -2.1200000
   0.8100000  -5.6600000  -1.1900000   0.7300000  -5.5700000  -4.5500000
   0.2300000  -4.6300000  -4.7800000   1.7800000  -5.4200000  -4.2900000
   0.8200000  -6.4500000  -5.8600000   1.5700000  -7.2500000  -5.8200000
  -0.1100000  -6.9900000  -6.0600000   1.1300000  -5.5800000  -7.0900000
   0.5100000  -4.5500000  -7.3600000   1.9800000  -6.0400000  -7.9300000
  -1.0600000  -4.6100000  -1.9000000  -1.7500000  -4.4600000  -2.6200000
  -1.2900000  -3.8900000  -0.6500000  -0.3200000  -3.4400000  -0.4300000
  -1.5800000  -4.8400000   0.4900000  -0.8600000  -4.8800000   1.4900000
  -2.3500000  -2.7700000  -0.9700000  -3.0400000  -3.1300000  -1.7400000
  -1.6000000  -1.6900000  -1.7100000  -0.9100000  -1.1700000  -1.0500000
  -1.1100000  -2.2300000  -2.5200000  -3.2000000  -2.2500000   0.2300000
  -4.0700000  -1.7400000  -0.1900000  -3.5100000  -3.0200000   0.9300000
  -2.6300000  -1.5400000   0.8200000  -2.6000000  -0.6700000  -2.4000000
  -3.0900000  -0.0100000  -1.6900000  -3.2900000  -1.2000000  -3.0600000
  -1.9900000  -0.0600000  -3.0600000  -2.6700000  -5.6200000   0.3300000
  -3.2000000  -5.4900000  -0.5200000  -3.0000000  -6.6600000   1.3800000
  -3.1400000  -6.1800000   2.3500000  -1.9000000  -7.7500000   1.6300000
  -1.8000000  -8.4000000   2.6600000  -4.3400000  -7.3400000   0.9200000
  -4.4800000  -7.4400000  -0.1500000  -4.4800000  -8.3300000   1.3600000
  -5.4100000  -6.4700000   1.5000000  -6.3500000  -6.7500000   1.0200000
  -5.3000000  -5.4300000   1.1900000  -5.5500000  -6.5900000   3.0100000
  -6.0900000  -7.5800000   3.5200000  -5.1200000  -5.6500000   3.7100000
  -1.0800000  -8.0500000   0.6400000  -1.3500000  -7.8100000  -0.3000000
   0.0700000  -8.8800000   0.7500000  -0.1600000  -9.8100000   1.2600000
   1.1300000  -8.2500000   1.6400000   1.7600000  -9.0400000   2.3700000
   0.7200000  -9.1300000  -0.6300000   1.7500000  -9.4700000  -0.5500000
   0.5900000  -8.2700000  -1.2900000   0.1600000 -10.3900000  -1.3500000
  -0.8700000 -10.2300000  -1.6800000   0.7700000 -10.6200000  -2.2200000
   0.0500000 -11.5900000  -0.4600000  -1.0300000 -12.0100000  -0.0900000
   1.0900000 -12.0800000  -0.0400000   1.3100000  -6.9200000   1.6700000
   0.8100000  -6.2800000   1.0700000   2.2900000  -6.2900000   2.6400000
   3.2100000  -6.8700000   2.6500000   1.8400000  -6.1200000   4.0300000
   2.5900000  -5.9500000   5.0300000   2.7300000  -4.9000000   2.0200000
   1.8400000  -4.4200000   1.6100000   3.7800000  -5.1900000   0.9500000
   3.5300000  -6.1200000   0.4500000   4.7700000  -5.3400000   1.4000000
   3.2200000  -3.8500000   2.9700000   4.1300000  -4.2600000   3.4100000
   3.4800000  -2.9800000   2.3600000   2.4300000  -3.5200000   3.6400000
   3.9000000  -4.1400000  -0.2300000   4.6400000  -4.5900000  -0.9000000
   4.2600000  -3.2200000   0.2300000   2.9400000  -4.1300000  -0.7500000
   0.5200000  -6.0400000   4.1300000  -0.1100000  -6.0500000   3.3400000
  -0.0900000  -5.9900000   5.4600000   0.5200000  -5.3200000   6.0500000
  -0.2800000  -7.3900000   6.1700000  -0.3800000  -7.3900000   7.4400000
  -1.4800000  -5.3600000   5.2000000  -2.1300000  -5.3600000   6.0800000
  -1.9600000  -5.9700000   4.4400000  -1.3500000  -3.8600000   4.8500000
  -0.5100000  -3.6000000   4.2000000  -2.6300000  -3.4200000   4.0500000
  -2.6300000  -3.7600000   3.0100000  -3.5300000  -3.7800000   4.5400000
  -2.5700000  -2.3300000   4.1000000  -1.2100000  -3.1000000   6.1400000
  -2.2000000  -3.1100000   6.6100000  -0.8500000  -2.0900000   5.9400000
  -0.4800000  -3.5500000   6.8100000  -0.0600000  -8.5500000   5.5800000
   0.0000000  -8.5700000   4.5700000   0.0700000  -9.8400000   6.3500000
  -0.8000000  -9.9600000   6.9900000   1.3900000  -9.9700000   7.3000000
   1.1700000 -10.3500000   8.4700000  -0.0400000 -11.0100000   5.4100000
   0.0500000 -11.9200000   6.0000000   0.8000000 -10.8700000   4.7200000
  -1.4700000 -11.0100000   4.8000000  -1.7200000  -9.9800000   4.5300000
  -2.1500000 -11.3800000   5.5600000  -1.4700000 -11.9400000   3.6000000
  -0.6800000 -11.5800000   2.9400000  -1.2100000 -12.9400000   3.9400000
  -2.8800000 -11.9900000   2.9300000  -3.6200000 -11.7800000   3.7000000
  -3.0700000 -13.0000000   2.5900000  -2.9700000 -11.1300000   1.7600000
  -2.5100000 -11.5100000   0.9500000  -2.6700000 -10.1900000   2.0100000
  -3.9700000 -11.0600000   1.6200000   2.4300000  -9.4200000   6.8900000
   5.2750000   1.2380000  -0.6550000   4.4560000   0.8170000   0.4730000
   5.0540000   0.1790000   1.6170000   4.1340000  -0.4030000   2.4300000
   4.5670000  -1.0780000   3.5910000   5.8970000  -1.1880000   3.9390000
   6.2690000  -1.9120000   5.1310000   6.9590000  -2.9320000   5.0150000
   5.7370000  -1.4940000   6.4670000   5.8140000  -0.2080000   6.9720000
   5.2900000   0.1190000   8.2530000   4.6740000  -0.8090000   9.0390000
   4.5550000  -2.0920000   8.5620000   5.1110000  -2.4160000   7.3020000
   6.8400000  -0.6020000   3.0980000   8.1560000  -0.6800000   3.4140000
   6.4190000   0.0810000   1.9250000   6.1957290   1.7112929  -0.2831775
   5.5345883   0.3615795  -1.2669650   4.7133671   1.9591570  -1.2669650
   3.0628585  -0.3485459   2.1856835   3.8115868  -1.5359837   4.2464402
   6.2910940   0.5788119   6.3692494   5.3845570   1.1514561   8.6205504
   4.2820431  -0.5374327  10.0302724   4.0331622  -2.8588691   9.1532673
   5.0447576  -3.4597749   6.9611982   8.8326902  -0.2661659   2.8216051
   7.1658378   0.5342038   1.2565394
