
  670  0.0000000e+00
  -9.9440000  -8.5320000   6.6810000  -9.4890000  -8.4380000   7.5780000
  -9.2520000  -8.9330000   6.0640000 -10.8170000  -9.0390000   6.7050000
 -10.2770000  -7.2730000   6.0730000 -10.7070000  -7.5260000   5.1030000
  -9.0950000  -6.4130000   5.7380000  -8.7910000  -6.2210000   4.5520000
 -11.4300000  -6.5080000   6.7740000 -12.3560000  -7.0750000   6.8720000
 -11.2800000  -6.3920000   7.8470000 -11.7300000  -5.1110000   6.2070000
 -12.5510000  -5.0130000   5.0750000 -13.0020000  -5.8700000   4.5980000
 -11.0930000  -3.9450000   6.7140000 -10.4230000  -4.0410000   7.5560000
 -12.8050000  -3.6790000   4.5630000 -13.3660000  -3.6110000   3.6430000
 -11.2790000  -2.6980000   6.1290000 -10.6770000  -1.8860000   6.5070000
 -12.1360000  -2.5720000   5.0210000 -12.2230000  -1.3170000   4.4690000
 -12.5000000  -0.7650000   5.2040000  -8.3670000  -5.8670000   6.7310000
  -8.5360000  -6.0510000   7.7100000  -7.2930000  -4.9490000   6.5180000
  -7.8210000  -4.1030000   6.0790000  -6.1900000  -5.4360000   5.5710000
  -5.6000000  -4.6570000   4.7780000  -6.7590000  -4.4770000   7.8760000
  -6.4060000  -5.3700000   8.3920000  -7.7980000  -3.8270000   8.7590000
  -8.5970000  -4.5650000   8.8250000  -7.3440000  -3.7780000   9.7490000
  -5.6040000  -3.4440000   7.6050000  -4.7800000  -4.0090000   7.1690000
  -5.3410000  -2.9140000   8.5210000  -5.8510000  -2.6810000   6.8660000
  -8.4200000  -2.4450000   8.3820000  -9.4610000  -2.4160000   8.7030000
  -8.4000000  -2.2180000   7.3160000  -7.7830000  -1.6610000   8.7920000
  -5.8800000  -6.7590000   5.4750000  -6.3780000  -7.3500000   6.1260000
  -4.9520000  -7.2980000   4.5460000  -4.0960000  -6.6230000   4.5870000
  -5.4020000  -7.2980000   3.0900000  -4.6790000  -6.9070000   2.1400000
  -4.4660000  -8.7130000   4.9920000  -4.2490000  -8.7360000   6.0600000
  -5.3090000  -9.3850000   4.8330000  -3.1700000  -9.1870000   4.3990000
  -2.1240000  -8.8900000   4.9020000  -3.2380000 -10.0030000   3.3500000
  -2.3890000 -10.1470000   2.8230000  -4.0990000 -10.2810000   2.9010000
  -6.7130000  -7.5580000   2.8590000  -7.2650000  -7.7660000   3.6790000
  -7.4140000  -7.1780000   1.6280000  -6.8840000  -7.6340000   0.7910000
  -7.4150000  -5.7050000   1.2480000  -7.3000000  -5.3570000   0.0980000
  -8.8100000  -7.7360000   1.5890000  -9.2720000  -7.3070000   0.6990000
  -9.3870000  -7.4660000   2.4740000  -8.7510000  -9.2750000   1.4680000
  -8.8990000 -10.0810000   2.4300000  -8.3090000  -9.6980000   0.3650000
  -7.4060000  -4.7520000   2.2400000  -7.2810000  -4.9960000   3.2120000
  -7.5080000  -3.4130000   1.9140000  -8.1460000  -3.2360000   1.0470000
  -6.1100000  -2.8240000   1.6010000  -6.0640000  -1.8600000   0.8380000
  -7.9880000  -2.5920000   3.1040000  -7.4040000  -2.7550000   4.0100000
  -7.8860000  -1.5280000   2.8900000  -9.3910000  -2.7230000   3.4500000
  -9.4670000  -2.2860000   4.3010000  -5.0790000  -3.4580000   2.0950000
  -5.0890000  -4.1140000   2.8620000  -3.7670000  -3.1750000   1.5880000
  -3.6690000  -2.1000000   1.7430000  -3.5370000  -3.5460000   0.0440000
  -3.0610000  -2.6980000  -0.7030000  -2.7670000  -3.7420000   2.5000000
  -2.8940000  -3.3670000   3.5150000  -2.8770000  -4.8220000   2.6060000
  -1.3770000  -3.2930000   2.2430000  -0.9110000  -2.1240000   2.8580000
  -1.5370000  -1.5980000   3.5630000  -0.5660000  -4.0820000   1.4410000
  -0.8220000  -5.0600000   1.0610000   0.4170000  -1.7090000   2.6360000
   0.8500000  -0.8380000   3.1050000   0.6810000  -3.5350000   1.1540000
   1.2850000  -4.0440000   0.4180000   1.2920000  -2.4150000   1.8050000
   2.2750000  -2.0220000   1.5930000  -4.1470000  -4.6910000  -0.3220000
  -4.5300000  -5.2620000   0.4170000  -4.0980000  -5.1930000  -1.7050000
  -3.0480000  -5.1460000  -1.9950000  -4.8870000  -4.2670000  -2.7080000
  -4.2940000  -3.8440000  -3.7150000  -4.4180000  -6.6760000  -1.8170000
  -5.4140000  -6.7370000  -1.3790000  -3.5190000  -7.6040000  -1.0190000
  -2.6450000  -7.9640000  -1.5610000  -3.0900000  -7.1390000  -0.1320000
  -4.4570000  -7.0700000  -3.3140000  -3.6250000  -6.6780000  -3.8990000
  -5.3970000  -6.8030000  -3.7960000  -4.2430000  -8.1380000  -3.3560000
  -4.2310000  -8.8940000  -0.4890000  -4.3410000  -9.4780000  -1.4030000
  -5.2480000  -8.7110000  -0.1420000  -3.6540000  -9.5020000   0.2080000
  -6.1510000  -3.8770000  -2.3150000  -6.4500000  -4.2120000  -1.4100000
  -7.0120000  -2.8820000  -3.0880000  -7.1440000  -3.3510000  -4.0630000
  -6.3140000  -1.4890000  -3.1450000  -6.4460000  -0.8520000  -4.1520000
  -8.4970000  -2.7910000  -2.5150000  -8.4360000  -2.5350000  -1.4570000
  -9.0510000  -1.9870000  -2.9990000  -9.2450000  -4.1690000  -2.7000000
  -8.6990000  -5.0590000  -2.3870000  -9.4050000  -4.1640000  -3.7780000
 -10.7040000  -4.3330000  -2.1890000 -10.6420000  -4.1770000  -1.1120000
 -11.2270000  -3.5210000  -2.6950000 -11.1160000  -5.7850000  -2.4720000
 -11.0780000  -5.9440000  -3.5500000 -10.4350000  -6.5020000  -2.0130000
 -12.4330000  -6.1900000  -1.9110000 -12.3260000  -6.3690000  -0.9230000
 -12.6150000  -7.0850000  -2.3420000 -13.2030000  -5.5720000  -2.1250000
  -5.6140000  -1.1170000  -2.0870000  -5.7320000  -1.6820000  -1.2590000
  -4.7320000   0.1120000  -2.1390000  -5.3180000   0.9730000  -2.4630000
  -3.6410000  -0.1270000  -3.2370000  -3.5120000   0.7570000  -4.0970000
  -4.2040000   0.5220000  -0.7630000  -3.8160000  -0.3070000  -0.1710000
  -5.3250000   1.2320000   0.1120000  -6.2000000   0.5870000   0.1950000
  -5.6830000   2.1190000  -0.4100000  -3.0270000   1.5190000  -0.8340000
  -3.3480000   2.3580000  -1.4520000  -2.7340000   1.8790000   0.1510000
  -2.1940000   1.0630000  -1.3690000  -4.8270000   1.4620000   1.5670000
  -4.2830000   0.6180000   1.9920000  -4.2940000   2.4040000   1.6910000
  -5.7090000   1.5340000   2.2020000  -2.8960000  -1.2120000  -3.1070000
  -3.1000000  -1.8420000  -2.3440000  -1.7210000  -1.4020000  -3.9970000
  -1.1390000  -0.4810000  -3.9630000  -2.1580000  -1.5440000  -5.4600000
  -1.4220000  -1.1010000  -6.3490000  -0.8100000  -2.5360000  -3.4050000
  -1.3040000  -3.4610000  -3.1070000  -0.1690000  -2.8970000  -4.2100000
   0.0790000  -2.0540000  -2.2210000   1.2850000  -2.2680000  -2.1420000
  -0.5020000  -1.7260000  -1.1080000   0.1750000  -1.5440000  -0.3810000
  -1.4930000  -1.9020000  -1.0190000  -3.3260000  -2.1280000  -5.7170000
  -3.8680000  -2.4570000  -4.9310000  -3.8690000  -2.2510000  -7.0280000
  -3.1890000  -2.8280000  -7.6550000  -4.2080000  -0.8990000  -7.7210000
  -3.9430000  -0.7430000  -8.9150000  -5.1450000  -3.1430000  -6.9570000
  -4.9620000  -4.0900000  -6.4490000  -5.9500000  -2.7790000  -6.3190000
  -5.7980000  -3.4650000  -8.3040000  -5.2490000  -4.4820000  -9.1200000
  -4.4290000  -5.0910000  -8.7700000  -6.9400000  -2.6200000  -8.7050000
  -7.3420000  -1.9640000  -7.9470000  -5.7940000  -4.7340000 -10.3790000
  -5.4220000  -5.5180000 -11.0230000  -7.3820000  -2.8420000  -9.9870000
  -8.1400000  -2.2140000 -10.4320000  -6.8780000  -3.9150000 -10.7950000
  -7.5110000  -3.9990000 -11.9590000  -7.1620000  -4.6580000 -12.5630000
  -4.8920000   0.0150000  -7.0510000  -5.2160000  -0.2570000  -6.1340000
  -5.2550000   1.3720000  -7.4700000  -5.8150000   1.2320000  -8.3940000
  -3.9250000   2.0660000  -7.6630000  -3.8510000   2.8090000  -8.6140000
  -6.1420000   2.0950000  -6.3700000  -6.2430000   3.1720000  -6.5070000
  -5.6140000   2.2280000  -5.4260000  -7.5330000   1.5170000  -6.1540000
  -7.5100000   0.4370000  -6.0100000  -7.9990000   2.1220000  -4.9180000
  -8.1920000   3.1860000  -5.0520000  -7.1950000   1.9680000  -4.1980000
  -8.9130000   1.6250000  -4.5930000  -8.5610000   1.8660000  -7.2230000
  -8.7210000   2.9410000  -7.1280000  -8.2330000   1.6130000  -8.2310000
  -9.5020000   1.4110000  -6.9130000  -2.9030000   1.8940000  -6.8160000
  -3.0210000   1.3570000  -5.9680000  -1.6850000   2.6470000  -6.8720000
  -1.9460000   3.7010000  -6.9680000  -0.8970000   2.2870000  -8.0810000
  -0.2720000   3.1420000  -8.6790000  -0.9520000   2.4670000  -5.5330000
  -1.2200000   1.4830000  -5.1500000  -1.4220000   3.5680000  -4.5910000
  -1.0650000   4.5720000  -4.8200000  -2.5080000   3.6450000  -4.6240000
   0.4960000   2.4750000  -5.6520000   0.7390000   3.3520000  -6.2520000
   0.9050000   2.3670000  -4.6470000   0.7730000   1.5930000  -6.2300000
  -0.9770000   3.3300000  -3.1300000  -1.4550000   4.0170000  -2.4310000
   0.0860000   3.4020000  -2.8970000  -1.3050000   2.3370000  -2.8210000
  -0.8210000   0.9860000  -8.4940000  -1.1050000   0.2310000  -7.8860000
  -0.0760000   0.6040000  -9.6490000   0.8770000   1.1300000  -9.6070000
  -0.8160000   1.0440000 -10.8690000  -0.1130000   1.3010000 -11.7970000
   0.1070000  -0.8830000  -9.6390000   0.3410000  -1.1730000 -10.6630000
  -0.8030000  -1.3440000  -9.2560000   1.3090000  -1.2370000  -8.7190000
   1.4210000  -0.7570000  -7.5640000   2.1560000  -2.1110000  -9.1950000
   2.9820000  -2.2730000  -8.6360000   2.0310000  -2.4950000 -10.1210000
  -2.1050000   1.1750000 -10.8040000  -2.6280000   0.8090000 -10.0210000
  -2.9560000   1.8650000 -11.7650000  -2.6760000   1.5110000 -12.7570000
  -2.8300000   3.3800000 -11.7930000  -2.8700000   3.9260000 -12.9060000
  -4.4300000   1.5850000 -11.5440000  -4.5900000   1.0620000 -10.6010000
  -4.9260000   2.5490000 -11.4270000  -4.9920000   0.6450000 -12.6180000
  -5.0740000   1.0550000 -13.6240000  -4.4720000  -0.3110000 -12.5550000
  -6.4520000   0.2300000 -12.2200000  -7.1540000   1.0510000 -12.3670000
  -6.5410000   0.0140000 -11.1560000  -7.0130000  -0.9940000 -13.0180000
  -6.3250000  -1.8370000 -13.0780000  -7.8090000  -1.4440000 -12.4240000
  -7.4680000  -0.5580000 -14.3320000  -8.0080000  -1.3150000 -14.7260000
  -8.1900000   0.1480000 -14.3060000  -6.7780000  -0.2660000 -15.0090000
  -2.6460000   4.0950000 -10.6760000  -2.7040000   3.6270000  -9.7830000
  -2.3720000   5.5390000 -10.6180000  -3.0460000   6.0890000 -11.2740000
  -0.9010000   5.9480000 -10.8870000  -0.5790000   7.1510000 -10.9630000
  -2.8450000   6.0600000  -9.1840000  -2.3250000   5.4260000  -8.4660000
  -2.5490000   7.0970000  -9.0280000  -4.3910000   5.9210000  -9.0830000
  -4.8040000   4.9170000  -9.1750000  -4.8620000   6.6030000  -9.7920000
  -4.9410000   6.3500000  -7.7360000  -4.4460000   5.8840000  -6.8840000
  -4.7800000   7.4110000  -7.5420000  -6.5050000   6.2900000  -7.7340000
  -6.8390000   5.2760000  -7.9520000  -6.9270000   6.8420000  -8.5740000
  -6.9520000   6.7850000  -6.4500000  -7.9540000   6.8380000  -6.5670000
  -6.5840000   6.1870000  -5.7240000  -6.5870000   7.7060000  -6.2510000
  -0.0470000   4.9340000 -10.8840000  -0.4190000   4.0050000 -10.7500000
   1.4770000   4.9780000 -10.8680000   1.9130000   3.9850000 -10.7620000
   2.0020000   5.9170000  -9.7600000   2.9300000   6.6990000  -9.9580000
   1.9750000   5.3580000 -12.3220000   2.0360000   6.4250000 -12.5350000
   2.9850000   4.9510000 -12.3640000   1.2790000   4.6740000 -13.5140000
   0.3770000   5.2740000 -13.6340000   1.0590000   3.6280000 -13.2980000
   2.1040000   4.8630000 -14.7260000   1.8990000   5.9240000 -14.8650000
   3.1090000   4.4930000 -14.5220000   1.4060000   4.2540000 -15.9230000
   0.3610000   4.0690000 -15.6730000   1.5950000   4.7820000 -16.8580000
   2.0030000   2.9450000 -16.1820000   3.0000000   3.0640000 -16.2910000
   1.4780000   2.5300000 -16.9380000   1.8740000   2.3930000 -15.3460000
   1.4560000   5.6760000  -8.5420000   0.7570000   4.9490000  -8.4860000
   1.8950000   6.2850000  -7.2610000   2.3280000   7.2590000  -7.4870000
   3.0880000   5.5340000  -6.7170000   3.0130000   5.0150000  -5.6420000
   0.6920000   6.5640000  -6.2830000   1.2530000   6.9470000  -5.4310000
   0.2310000   5.5910000  -6.1110000  -0.4690000   7.3850000  -6.7200000
  -0.2880000   8.3070000  -7.7700000   0.6110000   8.3340000  -8.3680000
  -1.6840000   7.4920000  -5.9820000  -1.9460000   7.0010000  -5.0570000
  -1.2420000   9.2830000  -8.0300000  -0.9900000  10.0500000  -8.7480000
  -2.6880000   8.3790000  -6.3860000  -3.5560000   8.5800000  -5.7750000
  -2.4300000   9.2920000  -7.3800000  -3.1200000  10.0910000  -7.6090000
   4.2920000   5.6030000  -7.2880000   4.3580000   6.1330000  -8.1450000
   5.4140000   4.6400000  -6.8980000   5.0380000   3.6270000  -6.7560000
   6.1950000   5.0320000  -5.6360000   6.7830000   4.2100000  -4.9530000
   6.3620000   4.4700000  -8.1520000   6.9270000   5.4020000  -8.1740000
   5.6730000   4.3010000  -8.9800000   7.1830000   3.1680000  -7.9770000
   6.5160000   2.3390000  -7.7380000   7.9830000   3.2090000  -7.2370000
   7.7320000   2.8740000  -9.4220000   8.3020000   1.9440000  -9.4440000
   6.8860000   2.7230000 -10.0920000   8.7710000   3.9090000  -9.9880000
   9.5520000   4.1020000  -9.2520000   8.2450000   4.8590000 -10.0860000
   9.4230000   3.4620000 -11.2470000   9.7370000   2.5110000 -11.1140000
  10.2410000   4.0410000 -11.3720000   8.7450000   3.5270000 -11.9930000
   6.0510000   6.2940000  -5.2090000   5.3790000   6.7790000  -5.7870000
   6.5930000   6.7680000  -3.8790000   7.5690000   6.3180000  -3.6930000
   5.6750000   6.2460000  -2.7540000   6.0860000   5.5820000  -1.7560000
   6.7400000   8.3310000  -3.8840000   5.7230000   8.6130000  -4.1590000
   7.7020000   8.8420000  -4.9960000   7.5290000   8.2510000  -5.8960000
   8.7520000   8.6740000  -4.7590000   7.1240000   8.8420000  -2.5100000
   6.5530000   8.4510000  -1.6680000   8.1530000   8.5250000  -2.3400000
   6.9740000   9.9110000  -2.3600000   7.5380000  10.3250000  -5.4250000
   6.4600000  10.3920000  -5.5690000   7.9230000  10.9000000  -4.5830000
   8.1790000  10.5120000  -6.2860000   4.3930000   6.5600000  -2.9110000
   4.1630000   7.0640000  -3.7550000   3.3960000   6.0800000  -1.9550000
   3.7110000   6.3690000  -0.9520000   3.4890000   4.5580000  -1.8360000
   3.3970000   4.0140000  -0.7370000   1.9770000   6.7070000  -2.3030000
   2.0970000   7.7900000  -2.2700000   1.6310000   6.4740000  -3.3100000
   0.9040000   6.3580000  -1.3000000   0.8340000   5.2720000  -1.2470000
   1.1150000   6.9310000   0.0860000   1.0340000   8.0170000   0.0520000
   2.0100000   6.6060000   0.6170000   0.2360000   6.5600000   0.6130000
  -0.3690000   6.8450000  -1.9110000  -0.3540000   7.9330000  -1.9800000
  -1.2250000   6.6440000  -1.2680000  -0.3570000   6.4260000  -2.9180000
   3.8370000   3.8540000  -2.8680000   3.7680000   4.2990000  -3.7720000
   4.0470000   2.3690000  -2.8600000   3.2310000   1.8870000  -2.3220000
   5.2720000   1.8580000  -2.1920000   5.1160000   1.1410000  -1.2160000
   3.8920000   1.9140000  -4.3080000   3.2590000   2.5850000  -4.8890000
   4.8310000   1.8020000  -4.8490000   3.2550000   0.5180000  -4.4830000
   3.0460000   0.3770000  -5.5440000   2.2650000   0.4580000  -4.0320000
   4.1350000  -0.6740000  -3.9580000   5.1590000  -0.5600000  -4.3120000
   4.1640000  -0.5220000  -2.8790000   3.4700000  -1.9440000  -4.3090000
   2.3940000  -1.9650000  -4.1370000   3.8140000  -2.6930000  -3.5960000
   3.7840000  -2.3620000  -5.6880000   3.2420000  -1.7430000  -6.2730000
   3.3670000  -3.2690000  -5.8440000   4.7890000  -2.4010000  -5.7770000
   6.4300000   2.3790000  -2.5860000   6.2990000   3.0320000  -3.3450000
   7.7550000   2.0020000  -1.9790000   7.8730000   0.9220000  -2.0590000
   7.5660000   2.1250000  -0.4410000   7.9700000   1.2010000   0.3310000
   8.8770000   2.9320000  -2.5910000   8.4540000   3.8940000  -2.8820000
   9.4910000   2.3550000  -3.9720000   8.6030000   2.2310000  -4.5930000
   9.9210000   1.3830000  -3.7290000  10.0230000   3.2020000  -1.5400000
  10.5790000   4.0380000  -1.9640000   9.4590000   3.6510000  -0.7220000
  10.5800000   2.3040000  -1.2730000  10.4250000   3.3160000  -4.6710000
  10.9000000   2.8530000  -5.5350000  11.2640000   3.4640000  -3.9910000
  10.0230000   4.3110000  -4.8630000   6.8540000   3.1860000   0.0620000
   6.4060000   3.8420000  -0.5610000   6.7120000   3.4070000   1.5100000
   7.6420000   3.1960000   2.0380000   5.6580000   2.4740000   2.0950000
   5.8010000   1.9490000   3.2580000   6.3620000   4.8730000   1.8810000
   6.1640000   4.9200000   2.9520000   5.4280000   5.1500000   1.3930000
   7.2180000   6.0890000   1.6140000   8.5450000   6.0230000   1.5000000
   9.1710000   5.1510000   1.6170000   6.8120000   7.4500000   1.4890000
   9.0150000   7.3380000   1.3650000   9.9790000   7.6290000   1.2890000
   7.9950000   8.2410000   1.3480000   5.5640000   8.1170000   1.5020000
   4.6130000   7.6070000   1.5490000   7.9820000   9.6580000   1.1150000
   8.8210000  10.3040000   0.9030000   5.5730000   9.5710000   1.3690000
   4.6550000  10.1370000   1.4280000   6.7460000  10.3260000   1.2480000
   6.6680000  11.4030000   1.2320000   4.5430000   2.1950000   1.3730000
   4.5090000   2.5470000   0.4270000   3.4920000   1.3690000   1.9220000
   3.2700000   1.6860000   2.9410000   4.0110000  -0.0420000   2.0900000
   3.7460000  -0.5870000   3.1170000   2.2410000   1.4980000   1.0580000
   1.6230000   0.6020000   1.1150000   2.5500000   1.7070000   0.0340000
   1.2010000   2.5670000   1.5180000   1.6470000   3.5470000   1.6890000
   0.2050000   2.9130000   0.3990000  -0.4440000   3.7540000   0.6410000
  -0.3450000   1.9810000   0.2690000   0.8160000   3.2390000  -0.4430000
   0.2820000   2.2690000   2.7600000  -0.5050000   3.0210000   2.8250000
  -0.2200000   1.3040000   2.6920000   0.9090000   2.2900000   3.6510000
   4.8860000  -0.5480000   1.2230000   5.0820000  -0.0990000   0.3390000
   5.5540000  -1.8690000   1.5670000   4.8750000  -2.6180000   1.9750000
   6.5010000  -1.8020000   2.7830000   6.6330000  -2.8200000   3.4130000
   6.3090000  -2.4500000   0.3320000   6.9030000  -3.3430000   0.5270000
   6.9600000  -1.6510000  -0.0250000   5.4300000  -2.7510000  -0.9330000
   4.8520000  -1.8830000  -1.2520000   6.3810000  -3.2140000  -2.0120000
   5.9180000  -3.6620000  -2.8910000   6.9850000  -2.3930000  -2.3970000
   7.0590000  -3.9550000  -1.5880000   4.4870000  -3.9770000  -0.6960000
   5.0870000  -4.7880000  -0.2820000   3.7210000  -3.7520000   0.0460000
   4.1400000  -4.3820000  -1.6470000   7.0500000  -0.6490000   3.1990000
   6.9000000   0.2340000   2.7310000   7.7890000  -0.5520000   4.4880000
   8.4510000  -1.4080000   4.6200000   6.7570000  -0.7180000   5.6160000
   6.9310000  -1.3770000   6.6110000   8.3980000   0.8190000   4.7160000
   9.0270000   0.6640000   5.5920000   7.6920000   1.6090000   4.9730000
   9.2760000   1.2920000   3.5820000   8.7050000   1.7130000   2.7550000
   9.7350000   0.3990000   3.1580000  10.2750000   2.3790000   3.8830000
  10.1590000   2.8480000   5.0050000  11.1860000   2.7050000   3.1180000
   5.5710000  -0.1680000   5.4400000   5.5280000   0.3290000   4.5620000
   4.4370000  -0.2080000   6.4090000   4.8760000  -0.0090000   7.3870000
   3.9140000  -1.6320000   6.5210000   3.8340000  -2.1870000   7.6360000
   3.3610000   0.9150000   6.1630000   3.1060000   0.8430000   5.1050000
   3.9200000   2.4030000   6.3380000   3.9280000   2.7540000   7.3700000
   4.9340000   2.3910000   5.9370000   2.0490000   0.7570000   6.9410000
   2.2520000   0.5710000   7.9960000   1.6660000  -0.1510000   6.4760000
   1.3940000   1.6230000   6.8520000   3.2450000   3.5400000   5.5160000
   2.2450000   3.7650000   5.8870000   3.1530000   3.3180000   4.4530000
   3.9590000   4.3520000   5.6570000   3.7100000  -2.3290000   5.4080000
   3.6350000  -1.7670000   4.5720000   3.5400000  -3.8220000   5.3600000
   2.5630000  -3.9710000   5.8200000   4.6940000  -4.6650000   6.0310000
   4.3900000  -5.7760000   6.5990000   3.3430000  -4.4170000   3.9250000
   2.4790000  -3.9910000   3.4140000   4.2130000  -4.1000000   3.3510000
   3.1780000  -5.8260000   3.9430000   2.3200000  -6.1410000   4.2350000
   5.9660000  -4.2440000   6.0060000   6.1970000  -3.4060000   5.4920000
   6.9910000  -4.7840000   6.9180000   6.8330000  -5.8600000   6.9990000
   6.8710000  -4.5560000   8.4370000   7.0370000  -5.4240000   9.2830000
   8.4320000  -4.5750000   6.3720000   8.6950000  -5.2620000   5.5680000
   8.3200000  -3.5830000   5.9360000   9.5660000  -4.5700000   7.3680000
  10.2940000  -5.7920000   7.6020000   9.9190000  -6.6600000   7.0810000
  10.0060000  -3.4680000   8.0820000   9.4720000  -2.5480000   7.8990000
  11.4300000  -5.8480000   8.4770000  11.9590000  -6.7750000   8.6400000
  11.0570000  -3.5020000   8.9990000  11.4570000  -2.6040000   9.4460000
  11.8270000  -4.6780000   9.1250000  12.6870000  -4.6740000   9.7790000
   6.4990000  -3.3130000   8.7770000   6.5630000  -2.6360000   8.0310000
   6.2990000  -2.9200000  10.1940000   7.2130000  -3.1210000  10.7530000
   5.1420000  -3.7030000  10.8730000   5.2110000  -4.0260000  12.0250000
   5.9160000  -1.3960000  10.2920000   5.7440000  -1.0900000  11.3230000
   5.0110000  -1.2390000   9.7040000   7.0070000  -0.3910000   9.8860000
   7.3150000  -0.6520000   8.8730000   6.5840000   1.0830000   9.9110000
   5.9710000   1.2740000  10.7920000   7.3710000   1.7920000   9.6540000
   5.8970000   1.1920000   9.0720000   8.1930000  -0.4820000  10.8290000
   8.0790000  -0.0270000  11.8120000   9.1110000  -0.0520000  10.4280000
   8.4480000  -1.5370000  10.9300000   4.0880000  -3.9770000  10.1550000
   4.0710000  -3.5290000   9.2500000   2.9410000  -4.8160000  10.4770000
   2.6600000  -4.6140000  11.5110000   3.4070000  -6.3260000  10.3380000
   2.6140000  -7.1510000  10.7570000   1.7750000  -4.4700000   9.5590000
   0.9850000  -5.2000000   9.7360000   2.0670000  -4.5960000   8.5170000
   1.1010000  -3.1330000   9.7350000   0.6470000  -2.3670000   8.6930000
   0.6900000  -2.5790000   7.6350000   0.6110000  -2.4150000  10.9040000
   0.0260000  -1.2720000   9.1490000  -0.4270000  -0.6480000   8.4960000
   0.0520000  -1.1550000  10.5100000   0.7010000  -2.6650000  12.2140000
   1.1180000  -3.5890000  12.5870000  -0.3100000  -0.2010000  11.4240000
  -0.5560000   0.8200000  11.1710000   0.3970000  -1.7050000  13.1470000
   0.4700000  -1.9720000  14.1910000  -0.1880000  -0.5010000  12.7920000
  -0.2950000   0.2090000  13.5990000   4.5230000  -6.6420000   9.7310000
   5.0970000  -5.9070000   9.3430000   4.9600000  -8.0720000   9.5760000
   4.1080000  -8.6920000   9.8570000   6.0450000  -8.5590000  10.5110000
   6.1270000  -9.7740000  10.6850000   5.2180000  -8.5690000   8.1530000
   5.3750000  -9.6420000   8.2660000   6.0410000  -7.9720000   7.7590000
   4.0850000  -8.4030000   7.2830000   4.0480000  -7.4470000   7.2140000
   6.8320000  -7.6700000  11.1120000   6.9970000  -6.7850000  10.6530000
   7.7100000  -8.0180000  12.2480000   8.5450000  -8.6220000  11.8950000
   7.0290000  -8.7650000  13.3860000   6.2400000  -8.0790000  14.0500000
   8.3380000  -6.7100000  12.6810000   7.5510000  -6.0600000  13.0620000
   8.8370000  -6.1940000  11.8610000   9.2280000  -6.9820000  13.7780000
   8.6780000  -7.1100000  14.5540000   7.2640000  -9.9920000  13.6280000
  -1.1710000   5.7180000   6.9630000  -2.2770000   4.7050000   7.2750000
  -2.0390000   3.4150000   6.5310000  -3.1520000   2.4360000   6.7790000
  -3.0810000   1.2550000   5.8210000  -4.4740000   0.8940000   5.3620000
  -4.7350000  -0.5800000   5.2670000  -2.4850000   0.1540000   6.4820000
  -1.2280000  -0.2250000   6.1340000  -0.5130000   0.4790000   5.4740000
  -0.8330000  -1.5520000   6.5970000  -1.5270000  -2.1810000   7.5380000
  -1.3070000  -3.5980000   7.9010000  -0.5420000  -4.4300000   7.1090000
  -0.3820000  -5.7590000   7.4560000  -0.9740000  -6.2660000   8.5740000
  -0.8030000  -7.5720000   8.8740000  -1.6610000  -8.1990000   9.8130000
  -1.7330000  -5.4340000   9.3710000  -1.8930000  -4.1070000   9.0290000
  -0.7505000   6.1031000   7.9037000  -0.3775000   5.2268000   6.3806000
  -1.5908000   6.5515000   6.3806000  -2.2875000   4.5024000   8.3561000
  -3.2429000   5.1249000   6.9578000  -1.9802000   3.6271000   5.4532000
  -1.0976000   2.9729000   6.8891000  -3.0769000   2.0637000   7.8113000
  -4.1090000   2.9538000   6.6177000  -2.4740000   1.5219000   4.9433000
  -5.1930000   1.3250000   6.0742000  -4.5825000   1.2972000   4.3443000
  -4.8103000  -1.0050000   6.2788000  -5.6775000  -0.7514000   4.7263000
  -3.9087000  -1.0646000   4.7263000   0.0521000  -2.0376000   6.1601000
  -2.3056000  -1.6196000   8.0753000  -0.0598000  -4.0362000   6.2022000
   0.2312000  -6.4156000   6.8213000  -1.3284000  -7.9559000  10.8330000
  -2.6900000  -7.8386000   9.6672000  -1.6301000  -9.2889000   9.6672000
  -2.2109000  -5.8289000  10.2797000  -2.4987000  -3.4499000   9.6703000
