
  315  0.0000000e+00
  -5.1300000   1.0500000   5.9600000  -5.8400000   0.4300000   6.3200000
  -5.2700000   1.9600000   6.3600000  -5.3100000   1.1400000   4.9700000
  -3.7800000   0.5100000   6.2900000  -3.7600000   0.5000000   7.3800000
  -2.6000000   1.5000000   5.9500000  -1.6100000   1.1400000   5.3100000
  -3.5500000  -0.9100000   5.7500000  -4.2300000  -1.1500000   4.9300000
  -2.5400000  -1.1000000   5.3800000  -3.8200000  -1.9600000   6.8700000
  -3.0700000  -1.9300000   8.1100000  -2.2000000  -1.3000000   8.2300000
  -4.8100000  -2.9500000   6.6400000  -5.3300000  -2.9800000   5.6900000
  -3.4500000  -2.7500000   9.1900000  -2.9100000  -2.6500000  10.1200000
  -5.0900000  -3.8000000   7.7300000  -5.9000000  -4.5000000   7.6500000
  -4.5000000  -3.6400000   9.0200000  -4.6900000  -4.4200000   9.7500000
  -2.7300000   2.7000000   6.5400000  -3.6400000   2.9100000   6.9100000
  -1.6400000   3.7500000   6.7000000  -2.1300000   4.5000000   7.3300000
  -0.8300000   3.3000000   7.2700000  -1.0300000   4.5300000   5.4600000
  -0.0600000   5.3500000   5.6700000  -1.4600000   4.1300000   4.3100000
  -2.0900000   3.3400000   4.3400000  -0.6600000   4.3000000   3.0500000
   0.0800000   5.1000000   3.1100000  -1.5200000   4.6300000   1.8200000
  -2.7400000   4.5500000   1.7800000   0.0800000   2.9800000   2.8300000
  -0.6300000   2.1600000   2.7000000   0.4800000   2.9900000   1.8200000
   1.0200000   2.5400000   3.9100000   0.5200000   2.6200000   4.8800000
   1.9200000   3.1600000   3.8800000   1.4500000   1.1000000   3.8900000
   1.9900000   0.8000000   2.9900000   0.5300000   0.5100000   3.9300000
   2.2700000   0.7600000   5.0500000   3.2200000   0.5100000   4.8200000
   1.8800000   0.3000000   6.1900000   0.6200000   0.1000000   6.4800000
   0.4500000   0.2000000   7.4700000  -0.0900000   0.4300000   5.8400000
   2.7300000   0.0300000   7.1800000   2.3400000  -0.3200000   8.0500000
   3.7100000   0.1900000   7.0100000  -0.9100000   5.1100000   0.7400000
   0.1000000   5.0800000   0.7400000  -1.4100000   5.8600000  -0.4600000
  -1.8600000   6.8200000  -0.2400000  -2.2100000   5.3200000  -0.9700000
  -0.3200000   5.9200000  -1.5300000   0.8300000   5.4000000  -1.3900000
  -0.6800000   6.3100000  -2.7800000  -1.6000000   6.7300000  -2.7900000
   0.0200000   6.1500000  -4.0800000   0.0600000   5.0700000  -4.2200000
   1.4300000   6.7200000  -4.0600000   1.5300000   7.9300000  -3.8000000
  -0.8700000   6.6400000  -5.2600000  -1.0800000   7.6800000  -5.0100000
  -0.2400000   6.5800000  -6.1400000  -2.1400000   5.7500000  -5.4400000
  -1.9900000   4.8300000  -6.0100000  -2.6100000   5.5300000  -4.4800000
  -3.1700000   6.7200000  -6.1100000  -2.8300000   6.9200000  -7.1200000
  -3.2400000   7.6000000  -5.4700000  -4.5500000   6.1000000  -6.0900000
  -5.2500000   6.9000000  -6.3300000  -4.7500000   5.8400000  -5.0500000
  -4.7900000   5.0100000  -7.0100000  -5.7600000   4.7900000  -7.1500000
  -4.2800000   4.1600000  -6.8500000  -4.5400000   5.4100000  -7.9100000
   2.4100000   5.9400000  -4.2800000   2.0600000   5.0600000  -4.6400000
   3.8500000   6.2600000  -4.1300000   3.9200000   7.3300000  -4.3300000
   4.5100000   5.7300000  -4.8200000   4.4100000   6.1000000  -2.7200000
   5.4800000   5.5500000  -2.5500000   3.6700000   6.4300000  -1.6800000
   2.8400000   6.9400000  -1.9600000   4.0600000   6.2800000  -0.2900000
   3.2000000   6.7000000   0.2400000   5.0400000   6.7600000  -0.1400000
   4.3100000   4.8100000   0.1800000   5.2800000   4.5600000   0.8500000
   3.4100000   3.8900000  -0.3300000   2.6500000   4.2100000  -0.9000000
   3.3000000   2.5200000   0.2300000   3.4100000   2.6900000   1.3000000
   2.3200000   2.1000000   0.0100000   4.2800000   1.4700000  -0.3500000
   4.3300000   0.3200000   0.1700000   5.2000000   1.8700000  -1.2800000
   5.3300000   2.8200000  -1.6000000   6.2300000   1.0300000  -1.7700000
   5.7000000   0.1600000  -2.1500000   7.3100000   0.5100000  -0.7300000
   8.0300000   1.3000000  -0.1300000   6.8600000   1.8100000  -2.9400000
   7.4100000   2.7000000  -2.6200000   6.1100000   2.0200000  -3.7000000
   7.9600000   1.1200000  -3.7600000   8.1500000  -0.1100000  -3.5700000
   8.5600000   1.7600000  -4.6500000   7.3700000  -0.8200000  -0.5300000
   6.8700000  -1.4500000  -1.1400000   8.2300000  -1.4000000   0.4200000
   8.2900000  -2.4600000   0.1400000   9.2400000  -1.0000000   0.3900000
   7.8300000  -1.2700000   1.8600000   8.3200000  -2.0600000   2.7200000
   6.9400000  -0.3600000   2.1800000   6.6100000   0.3100000   1.5000000
   6.4500000  -0.0100000   3.5600000   7.2500000  -0.0700000   4.3000000
   5.2800000  -0.9500000   4.0400000   4.1500000  -0.7400000   3.7000000
   5.8500000   1.4000000   3.5400000   5.1400000   1.4400000   2.7100000
   5.2600000   1.5900000   4.4300000   6.8300000   2.5700000   3.5200000
   6.2100000   3.4600000   3.3900000   7.5900000   2.4200000   2.7600000
   7.5700000   2.8500000   4.8400000   8.1900000   3.9200000   4.9400000
   7.5000000   2.0800000   5.8800000   5.6000000  -1.9700000   4.8500000
   6.5500000  -2.0300000   5.1700000   4.6200000  -2.7300000   5.6100000
   3.9300000  -2.0600000   6.1200000   5.2300000  -3.3100000   6.3100000
   3.8500000  -3.7300000   4.7500000   4.4600000  -4.3600000   3.8600000
   2.5400000  -3.8700000   5.0800000   2.1800000  -3.4200000   5.9100000
   1.5400000  -4.4500000   4.2200000   1.7000000  -5.5300000   4.1900000
   1.5900000  -4.0500000   2.7100000   1.2300000  -4.8600000   1.8600000
   0.1200000  -4.1900000   4.8700000   0.0900000  -3.1800000   5.2700000
   0.0000000  -5.1300000   6.1500000  -0.0200000  -6.1600000   5.8000000
   0.9400000  -5.1100000   6.7100000  -1.0300000  -4.2600000   3.9200000
  -0.8300000  -3.5700000   3.1100000  -1.0800000  -5.2400000   3.4500000
  -1.9200000  -3.9100000   4.4500000  -1.2000000  -4.8700000   7.1500000
  -1.1400000  -3.8600000   7.5500000  -2.1000000  -5.1000000   6.5800000
  -1.1400000  -5.5500000   8.0000000   2.0900000  -2.7700000   2.4900000
   2.4600000  -2.1800000   3.2200000   2.1900000  -2.2400000   1.1300000
   1.1800000  -2.3300000   0.7300000   2.4600000  -1.1900000   1.1100000
   3.1100000  -3.0300000   0.2600000   2.7800000  -3.4800000  -0.8300000
   4.3600000  -3.2300000   0.7500000   4.5700000  -2.9900000   1.7100000
   5.3900000  -3.9500000  -0.0300000   6.3600000  -3.7200000   0.4200000
   5.4500000  -3.5300000  -1.0300000   5.1600000  -5.5000000  -0.0600000
   5.5800000  -6.1800000  -0.9800000   4.2600000  -6.1000000   0.8300000
   3.9400000  -5.5900000   1.6500000   3.6500000  -7.4700000   0.5800000
   4.4400000  -8.1300000   0.2300000   3.3300000  -7.8200000   1.5600000
   2.4800000  -7.5300000  -0.3400000   2.3500000  -8.6000000  -0.9600000
   1.7400000  -6.4700000  -0.7200000   1.6100000  -5.7500000  -0.0300000
   0.8600000  -6.3400000  -1.9000000   0.3700000  -7.3100000  -2.0400000
   1.5500000  -5.9300000  -3.1800000   1.3500000  -6.5500000  -4.1600000
  -0.3200000  -5.3500000  -1.5900000  -0.6900000  -5.0300000  -2.5600000
   0.1000000  -4.5000000  -1.0600000  -1.3900000  -5.9200000  -0.6900000
  -0.9900000  -6.3800000   0.2100000  -2.1900000  -4.7200000  -0.3000000
  -1.5500000  -3.9700000   0.1600000  -3.0400000  -5.0100000   0.3200000
  -2.6300000  -4.3100000  -1.2100000  -2.3600000  -6.8900000  -1.4400000
  -1.7800000  -7.8100000  -1.5200000  -3.3300000  -7.0400000  -0.9600000
  -2.5500000  -6.7000000  -2.5000000   2.4300000  -4.9700000  -3.1600000
   2.7100000  -4.5600000  -2.2800000   3.2600000  -4.5700000  -4.2900000
   3.9900000  -5.3700000  -4.4300000   3.8600000  -3.8200000  -3.7700000
   2.6100000  -4.0400000  -5.6000000   3.3700000  -3.9600000  -6.5500000
   1.3500000  -3.7900000  -5.6900000   0.8500000  -3.9300000  -4.8200000
   0.5300000  -3.3600000  -6.8400000  -0.3700000  -3.9700000  -6.7800000
   1.0800000  -3.5500000  -7.7600000   0.0700000  -1.9200000  -6.6100000
  -0.0500000  -1.5000000  -5.4800000   0.1500000  -1.1200000  -7.7000000
   0.4700000  -1.5100000  -8.5700000   0.2400000   0.2900000  -7.5200000
   1.1100000   0.5300000  -6.9000000  -0.9100000   0.8400000  -6.7100000
  -2.0800000   0.6200000  -6.8900000   0.4000000   0.9900000  -8.8400000
   0.6100000   2.0400000  -8.6600000   1.2800000   0.5100000  -9.2800000
  -0.7600000   0.8700000  -9.6700000  -0.8800000  -0.0700000  -9.8400000
  -0.5500000   1.5900000  -5.6600000   0.4000000   1.9200000  -5.7000000
  -1.5000000   2.1600000  -4.7800000  -1.0700000   2.8900000  -4.1000000
  -2.2000000   2.7200000  -5.4100000  -2.3500000   1.1100000  -4.0000000
  -3.2200000   1.5700000  -3.2500000  -2.1300000  -0.2000000  -4.1400000
  -1.4200000  -0.4400000  -4.8200000  -2.7600000  -1.1200000  -3.2700000
  -2.2100000  -2.0600000  -3.3000000  -2.6800000  -0.6800000  -2.2800000
  -4.1700000  -1.3600000  -3.5600000  -4.6700000  -1.4800000  -4.6400000
  -4.9800000  -1.3100000  -2.5500000  -4.5800000  -1.3500000  -1.6200000
  -6.5100000  -1.1900000  -2.7000000  -6.9100000  -1.9800000  -3.3400000
  -6.9600000   0.1100000  -3.3600000  -8.1000000   0.1900000  -3.7600000
  -7.1300000  -1.4800000  -1.3300000  -8.2000000  -1.4200000  -1.5300000
  -6.9500000  -0.6500000  -0.6400000  -6.9000000  -2.8000000  -0.6800000
  -7.7200000  -3.9000000  -0.7500000  -8.5200000  -4.0400000  -1.4700000
  -5.9600000  -3.1800000   0.4100000  -7.2100000  -4.9400000   0.0200000
  -7.6400000  -5.8600000   0.0400000  -6.1800000  -4.5200000   0.8000000
  -5.0000000  -2.4900000   1.1900000  -4.8100000  -1.4700000   0.8700000
  -5.5000000  -5.1500000   1.8700000  -5.7800000  -6.1800000   2.0700000
  -4.2300000  -3.1200000   2.2100000  -3.4700000  -2.5600000   2.7400000
  -4.5100000  -4.4300000   2.6000000  -4.0100000  -4.9400000   3.4100000
  -6.0900000   1.1000000  -3.6100000  -5.2100000   1.0500000  -3.1200000
  -6.3400000   2.3700000  -4.2300000  -6.8900000   2.2700000  -5.1600000
  -5.4000000   2.7800000  -4.5700000  -6.9900000   3.4000000  -3.2600000
  -7.7400000   4.2700000  -3.7300000  -6.6000000   3.4200000  -1.9900000
  -5.8300000   2.8300000  -1.7200000  -7.0200000   4.3400000  -0.9400000
  -8.1100000   4.3100000  -0.9800000  -6.6700000   5.8600000  -1.1000000
  -5.5100000   6.2600000  -1.1000000  -6.6700000   3.8400000   0.4700000
  -6.9800000   4.6800000   1.0900000  -5.5900000   3.8500000   0.6000000
  -7.1200000   2.4000000   0.9200000  -7.7900000   1.6100000   0.2300000
  -6.6700000   2.1100000   2.0800000  -7.6300000   6.6200000  -1.2000000
   3.7990000  -0.2240000  -4.2950000   2.7160000  -0.7910000  -3.5940000
   1.8810000   0.0120000  -2.8640000   0.7830000  -0.5770000  -2.2460000
  -0.0870000   0.2000000  -1.4940000   0.1340000   1.5660000  -1.3410000
  -0.7980000   2.4290000  -0.5330000  -0.6170000   3.6290000  -0.5470000
  -1.9390000   1.8870000   0.2400000  -1.8150000   0.7450000   1.0210000
  -2.8920000   0.2560000   1.7250000  -4.1160000   0.9030000   1.6620000
  -4.2520000   2.0560000   0.9010000  -3.1630000   2.5690000   0.2010000
   1.2300000   2.1500000  -1.9670000   1.4330000   3.4840000  -1.8260000
   2.0910000   1.3730000  -2.7250000   4.5378000   0.1628000  -3.5777000
   4.2689000  -0.9918000  -4.9272000   3.4357000   0.5996000  -4.9272000
   0.6044000  -1.6571000  -2.3531000  -0.9594000  -0.2679000  -1.0143000
  -0.8466000   0.2263000   1.0774000  -2.7810000  -0.6501000   2.3388000
  -4.9790000   0.5032000   2.2146000  -5.2248000   2.5669000   0.8507000
  -3.2623000   3.4999000  -0.3766000   2.2082000   3.9158000  -2.2649000
   2.9520000   1.8435000  -3.2224000
