
  417  0.0000000e+00
   8.7400000  -4.6520000  -0.4450000   8.7530000  -5.4480000   0.1770000
   8.4590000  -5.0020000  -1.3490000   9.6780000  -4.2790000  -0.4670000
   7.7810000  -3.7110000   0.2330000   7.8520000  -2.7640000  -0.3040000
   8.2470000  -3.4870000   1.6890000   8.8250000  -4.4370000   2.2510000
   6.3490000  -4.2390000   0.3100000   5.8340000  -3.5510000   0.9800000
   6.3920000  -5.1400000   0.9220000   5.7800000  -4.5040000  -1.0340000
   5.5600000  -3.4530000  -1.9410000   5.8640000  -2.4560000  -1.6600000
   5.4230000  -5.8340000  -1.3130000   5.6240000  -6.6410000  -0.6240000
   4.9490000  -3.6400000  -3.1480000   4.7510000  -2.8060000  -3.8050000
   4.6920000  -5.9960000  -2.4720000   4.3960000  -7.0120000  -2.6910000
   4.4080000  -4.9730000  -3.3850000   3.8220000  -5.2050000  -4.2610000
   8.0900000  -2.3590000   2.3220000   8.1000000  -2.2660000   3.7390000
   9.0790000  -2.5740000   4.1060000   6.9980000  -3.0980000   4.3950000
   6.0760000  -3.5630000   3.7230000   7.8690000  -0.7160000   3.9770000
   8.8040000  -0.1960000   3.7700000   7.3830000  -0.4970000   4.9270000
   6.9940000  -0.3410000   2.7750000   5.9740000  -0.6360000   3.0230000
   7.1300000   0.7160000   2.5450000   7.4760000  -1.2230000   1.6210000
   6.6580000  -1.5860000   1.0000000   8.3020000  -0.6830000   1.1580000
   6.9780000  -3.2990000   5.6920000   7.8050000  -3.0390000   6.2110000
   5.8720000  -3.7900000   6.4580000   5.4500000  -4.6690000   5.9690000
   4.8780000  -2.6980000   6.5600000   5.1920000  -1.5540000   6.7780000
   6.4040000  -4.2580000   7.8020000   7.0320000  -5.1220000   7.5840000
   7.0450000  -3.5210000   8.2840000   5.2760000  -4.4650000   8.8670000
   4.5150000  -5.1470000   8.4890000   4.8380000  -3.5040000   9.1370000
   5.7770000  -5.2300000  10.0960000   6.0800000  -6.1990000   9.7000000
   6.6010000  -4.7260000  10.6010000   4.6460000  -5.5280000  11.0370000
   3.7610000  -5.1040000  10.7980000   4.7020000  -6.2840000  12.1680000
   5.7890000  -6.8880000  12.4880000   6.6880000  -6.7080000  12.0650000
   5.6440000  -7.6680000  13.1130000   3.6400000  -6.4360000  12.7810000
   2.8000000  -5.8900000  12.6500000   3.7520000  -6.9450000  13.6450000
   3.5640000  -3.0000000   6.5080000   3.3370000  -3.9720000   6.3570000
   2.3430000  -2.2270000   6.8190000   2.2870000  -1.4430000   6.0640000
   2.3730000  -1.5120000   8.1890000   1.9350000  -2.0440000   9.1860000
   1.0640000  -3.2010000   6.5750000   1.1510000  -4.0640000   7.2350000
   0.9660000  -3.5520000   5.5470000  -0.3070000  -2.4460000   6.8360000
  -0.1110000  -1.4890000   7.3210000  -1.0630000  -2.2890000   5.4920000
  -0.4720000  -1.8450000   4.6900000  -1.2440000  -3.3030000   5.1370000
  -2.0710000  -1.8740000   5.5130000  -1.0370000  -3.2310000   7.8510000
  -1.2950000  -4.2110000   7.4510000  -0.4250000  -3.3420000   8.7460000
  -1.9550000  -2.6890000   8.0780000   3.0630000  -0.3590000   8.3310000
   3.5020000  -0.0230000   7.4850000   3.4300000   0.3750000   9.5430000
   3.1660000  -0.1470000  10.4620000   2.7470000   1.7620000   9.7260000
   2.7080000   2.3920000  10.7730000   4.9680000   0.5980000   9.4920000
   5.3100000   0.9070000   8.5040000   5.1610000   1.3290000  10.2770000
   5.8630000  -0.5930000   9.9580000   5.7140000  -1.4470000   9.2980000
   5.6210000  -0.8850000  10.9800000   7.4210000  -0.2920000   9.9950000
   7.6410000  -0.0290000   8.9600000   7.8920000  -1.2580000  10.1780000
   7.8760000   0.7370000  10.9970000   7.8670000   0.3840000  12.0280000
   7.2390000   1.6210000  11.0020000   9.3140000   1.0850000  10.8070000
   9.8630000   0.2840000  10.5310000   9.7520000   1.3630000  11.6730000
   9.3240000   1.8850000  10.1900000   2.2660000   2.2740000   8.5710000
   2.3890000   1.7430000   7.7210000   1.8000000   3.5980000   8.2940000
   1.6550000   4.1790000   9.2050000   0.3880000   3.5340000   7.5970000
   0.0250000   2.5340000   6.9400000   2.8840000   4.2720000   7.3000000
   2.6400000   5.3060000   7.0590000   2.8740000   3.6640000   6.3950000
   4.3150000   4.2820000   7.6200000   4.6870000   3.3000000   7.9120000
   5.1530000   4.8730000   6.4530000   6.2100000   5.0550000   6.6450000
   5.0690000   4.1610000   5.6320000   4.6890000   5.8150000   6.1600000
   4.4960000   5.2260000   8.7950000   5.5380000   5.4050000   9.0600000
   4.0230000   4.8810000   9.7150000   4.1090000   6.2250000   8.5950000
  -0.3950000   4.6110000   7.6220000  -0.0790000   5.4470000   8.0930000
  -1.6640000   4.7430000   6.8800000  -2.3160000   3.9040000   7.1260000
  -1.4770000   4.6800000   5.4060000  -2.3120000   4.2000000   4.6630000
  -2.4190000   6.0130000   7.3570000  -1.7790000   6.8950000   7.3620000
  -2.6350000   5.9220000   8.4220000  -3.7520000   6.2250000   6.6730000
  -4.3110000   5.3060000   6.8490000  -3.7270000   6.3660000   5.5930000
  -4.4920000   7.3440000   7.3200000  -3.8790000   8.2330000   7.4640000
  -4.8370000   7.1120000   8.3270000  -5.7630000   7.6120000   6.3980000
  -6.2560000   6.6490000   6.2630000  -5.3660000   8.0300000   5.4740000
  -6.7480000   8.4510000   7.1160000  -7.6580000   8.5280000   6.6850000
  -6.8880000   8.1330000   8.0650000  -6.3610000   9.3820000   7.1750000
  -0.3950000   5.2520000   4.9480000   0.2360000   5.6920000   5.6020000
   0.0890000   5.2510000   3.5360000  -0.6370000   5.7780000   2.9160000
   0.1590000   3.8630000   3.0130000   0.0360000   3.7570000   1.8290000
   1.4670000   5.8890000   3.5600000   1.8200000   5.7660000   2.5360000
   1.5020000   6.9540000   3.7890000   2.3540000   5.2960000   4.4470000
   3.1770000   5.4120000   3.9680000   0.3990000   2.7960000   3.8280000
   0.6510000   2.9520000   4.7940000   0.4290000   1.4440000   3.2770000
   1.0500000   1.3290000   2.3890000  -1.0170000   0.9780000   2.9440000
  -1.3280000   0.5410000   1.8540000   0.9810000   0.5410000   4.3970000
   0.3260000   0.5060000   5.2680000   1.0850000  -0.4400000   3.9330000
   2.3860000   0.9190000   4.8660000   3.2970000   0.9910000   4.0390000
   2.5270000   1.0700000   6.0720000  -1.9100000   1.0150000   3.9390000
  -1.5880000   1.2280000   4.8720000  -3.3530000   0.5770000   3.8880000
  -3.4090000  -0.4830000   3.6380000  -4.0880000   1.3040000   2.7290000
  -4.7990000   0.7180000   1.8840000  -4.0990000   0.9660000   5.1420000
  -5.1510000   0.6930000   5.0530000  -3.9390000   1.9840000   5.4990000
  -3.7720000   0.3170000   5.9540000  -3.8430000   2.6320000   2.5030000
  -3.2860000   3.0520000   3.2340000  -4.5760000   3.4500000   1.4860000
  -5.5930000   3.0640000   1.4180000  -3.9480000   3.2180000   0.0800000
  -4.5900000   3.3300000  -0.9690000  -4.4450000   4.9730000   1.8420000
  -4.7030000   5.5300000   0.9410000  -3.4700000   5.2070000   2.2710000
  -5.4450000   5.2320000   2.9120000  -6.3320000   4.6450000   2.6720000
  -4.9800000   4.8600000   3.8250000  -5.7790000   6.7340000   3.0810000
  -4.8860000   7.5540000   2.7140000  -6.9810000   7.0230000   3.2970000
  -2.6560000   2.9830000  -0.0290000  -2.1330000   2.7970000   0.8150000
  -2.0400000   2.6310000  -1.2880000  -2.2590000   3.3200000  -2.1040000
  -2.5160000   1.2230000  -1.8220000  -2.6130000   0.9520000  -3.0330000
  -0.4880000   2.7210000  -1.1700000  -0.1960000   3.6560000  -0.6920000
   0.0140000   1.9050000  -0.6490000  -0.0830000   2.8320000  -2.1760000
  -2.5870000   0.1990000  -0.9090000  -2.5690000   0.3930000   0.0820000
  -3.2460000  -1.0580000  -1.1300000  -2.7380000  -1.5030000  -1.9860000
  -4.7130000  -1.0560000  -1.5650000  -5.0060000  -1.5270000  -2.6690000
  -2.9260000  -2.0570000   0.0520000  -3.4210000  -1.5370000   0.8720000
  -1.3890000  -2.2890000   0.2470000  -0.8170000  -1.3980000  -0.0110000
  -0.9070000  -2.9570000  -0.4670000  -3.6790000  -3.4210000  -0.0920000
  -3.4160000  -3.9420000  -1.0120000  -3.4190000  -4.0820000   0.7350000
  -4.7410000  -3.2070000  -0.2130000  -0.9790000  -2.7420000   1.6800000
  -1.3540000  -3.7370000   1.9190000  -1.1830000  -2.0170000   2.4690000
   0.1000000  -2.8930000   1.6550000  -5.5390000  -0.2460000  -0.8720000
  -5.0920000   0.3740000  -0.2110000  -6.8690000   0.1630000  -1.2970000
  -7.5300000  -0.7030000  -1.3250000  -6.9140000   0.7860000  -2.7250000
  -7.8990000   0.5960000  -3.4500000  -7.5920000   1.0660000  -0.2800000
  -8.6250000   1.3100000  -0.5260000  -7.6820000   0.5840000   0.6940000
  -7.0740000   2.0230000  -0.2190000  -5.8070000   1.4780000  -3.0650000
  -5.1350000   1.6210000  -2.3250000  -5.6390000   2.2080000  -4.3850000
  -6.6520000   2.5390000  -4.6100000  -5.1850000   1.2810000  -5.5760000
  -5.7290000   1.3710000  -6.7060000  -4.7620000   3.4490000  -4.2310000
  -4.6310000   3.9370000  -5.1970000  -3.7850000   3.1270000  -3.8720000
  -5.3060000   4.2930000  -3.2820000  -5.1240000   4.0000000  -2.3870000
  -4.4000000   0.2590000  -5.2570000  -4.0850000   0.1760000  -4.3000000
  -4.0190000  -0.7630000  -6.1640000  -3.6900000  -0.3920000  -7.1350000
  -5.2270000  -1.6630000  -6.3490000  -5.3200000  -2.1500000  -7.5260000
  -2.7960000  -1.5250000  -5.5400000  -1.8790000  -0.9390000  -5.6020000
  -3.1840000  -1.7770000  -4.5530000  -2.5330000  -2.8690000  -6.3410000
  -3.3870000  -3.5320000  -6.2010000  -1.6230000  -3.3380000  -5.9650000
  -2.1700000  -2.6330000  -7.8370000  -1.2410000  -2.0620000  -7.8160000
  -2.9900000  -2.0780000  -8.2910000  -2.0040000  -3.8710000  -8.5770000
  -1.0800000  -4.2120000  -8.8000000  -2.9980000  -4.6610000  -9.0040000
  -4.2090000  -4.3700000  -8.9040000  -4.4470000  -3.4390000  -8.5930000
  -4.8060000  -5.1660000  -9.0760000  -2.6220000  -5.8130000  -9.4480000
  -3.3090000  -6.5530000  -9.4280000  -1.6530000  -6.0840000  -9.3610000
  -6.0520000  -1.9290000  -5.3060000  -5.6560000  -1.7270000  -4.4000000
  -7.3080000  -2.6990000  -5.3110000  -7.1220000  -3.6750000  -5.7590000
  -8.3890000  -2.0080000  -6.3010000  -8.9280000  -2.7170000  -7.1830000
  -7.8380000  -2.8710000  -3.8840000  -7.8320000  -1.9210000  -3.3480000
  -8.8950000  -3.1250000  -3.9650000  -7.1640000  -4.0480000  -3.0440000
  -6.0780000  -4.0040000  -3.1280000  -7.5020000  -3.9350000  -1.5290000
  -6.8300000  -3.2180000  -1.0570000  -7.5370000  -4.9090000  -1.0420000
  -8.5370000  -3.5940000  -1.5360000  -7.5980000  -5.3820000  -3.5960000
  -7.1860000  -6.1370000  -2.9260000  -7.1640000  -5.4370000  -4.5940000
  -8.6850000  -5.4350000  -3.6500000  -8.6560000  -0.7390000  -6.2030000
  -8.3390000  -0.1550000  -5.4430000  -9.3540000  -0.0030000  -7.2760000
 -10.3240000  -0.4860000  -7.4020000  -8.7550000  -0.0680000  -8.6980000
  -9.2240000   0.6300000  -9.6220000  -9.5220000   1.5100000  -6.8520000
  -8.5120000   1.8270000  -6.5910000  -9.9640000   2.1440000  -7.6210000
 -10.2980000   1.6950000  -5.5490000 -11.0460000   0.7860000  -5.1530000
 -10.0900000   2.6870000  -4.8610000  -7.6460000  -0.7410000  -8.8900000
  -7.3830000  -1.3960000  -8.1680000  -6.6600000  -0.6340000 -10.0160000
  -5.7530000  -1.2030000  -9.8160000  -7.1750000  -1.1520000 -10.8260000
  -6.1630000   0.7610000 -10.4730000  -5.7870000   0.9720000 -11.6210000
  -6.3210000   1.7680000  -9.6090000  -6.7680000   1.6890000  -8.7070000
  -5.9820000   3.1940000  -9.9430000  -6.4420000   3.4280000 -10.9030000
  -4.4350000   3.4730000 -10.1040000  -4.0610000   4.5980000 -10.4870000
  -6.5910000   4.0420000  -8.8890000  -7.6520000   3.8220000  -8.7680000
  -6.5610000   5.0700000  -9.2500000  -5.9110000   3.9260000  -7.6590000
  -6.1280000   3.0990000  -7.2220000  -3.5910000   2.5510000  -9.7020000
  -3.9380000   1.6060000  -9.6230000  -2.1090000   2.6290000  -9.5610000
  -1.6560000   3.1770000 -10.3880000  -1.4190000   1.3200000  -9.5720000
  -2.0550000   0.2880000  -9.3610000  -1.8200000   3.4690000  -8.2940000
  -2.4550000   4.3360000  -8.4750000  -0.3650000   3.6120000  -8.2680000
  -0.1670000   3.8470000  -7.3580000  -2.1990000   2.7020000  -7.0220000
  -1.4670000   1.9040000  -6.8980000  -2.0260000   3.3360000  -6.1520000
  -3.2030000   2.2970000  -7.1420000  -0.0860000   1.1850000  -9.9090000
   0.4570000   2.0210000 -10.0730000   0.5960000  -0.0230000  -9.6090000
  -0.0980000  -0.8350000  -9.8280000   0.9870000  -0.1930000  -8.1250000
   0.8790000   0.7180000  -7.2920000   1.7590000  -0.1210000 -10.5510000
   2.3370000   0.8020000 -10.5170000   2.3640000  -0.9930000 -10.3020000
   1.3530000  -0.3410000 -11.5380000   1.6560000  -1.3430000  -7.8160000
   1.7980000  -1.9350000  -8.6220000   2.2420000  -1.6750000  -6.5140000
   1.5170000  -1.4670000  -5.7270000   3.5440000  -0.8200000  -6.1790000
   4.5400000  -1.3930000  -5.7200000   2.5040000  -3.2160000  -6.4370000
   3.3830000  -3.4360000  -5.8310000   2.7930000  -3.5330000  -7.4390000
   1.4370000  -4.1810000  -6.0070000   0.7380000  -4.9370000  -6.9050000
   0.8370000  -4.8860000  -7.9790000   1.0080000  -4.5820000  -4.6560000
  -0.1000000  -5.7710000  -6.1410000  -0.7150000  -6.4510000  -6.5660000
  -0.0310000  -5.6000000  -4.7700000   1.3320000  -4.1860000  -3.3220000
   2.1670000  -3.5170000  -3.1750000  -0.7360000  -6.0790000  -3.6410000
  -1.5940000  -6.7280000  -3.7360000   0.7280000  -4.7670000  -2.2190000
   1.0670000  -4.6110000  -1.2060000  -0.2820000  -5.7300000  -2.3700000
  -0.7330000  -6.1930000  -1.5040000   3.6030000   0.4590000  -6.4380000
   2.7620000   0.7450000  -6.9190000   4.7300000   1.3500000  -6.1770000
   5.3610000   0.9510000  -5.3820000   4.2490000   2.7240000  -5.7600000
   3.4120000   3.3580000  -6.3780000   5.7510000   1.6450000  -7.3080000
   6.3190000   2.5710000  -7.2070000   4.9900000   1.6990000  -8.5440000
   4.3030000   2.3420000  -8.3530000   6.7350000   0.4480000  -7.4670000
   7.5060000   0.7750000  -8.1630000   6.2410000  -0.4750000  -7.7710000
   7.2770000   0.2540000  -6.5410000   4.7320000   3.3330000  -4.6520000
   5.4240000   2.7850000  -4.1610000   4.4430000   4.6900000  -4.1890000
   3.3800000   4.9180000  -4.2670000   5.0450000   5.7130000  -5.1590000
   6.2490000   5.6430000  -5.4210000   4.9610000   4.8710000  -2.7360000
   4.1200000   4.6770000  -2.0690000   5.2160000   5.9030000  -2.4940000
   6.1720000   3.9400000  -2.2410000   6.1550000   2.6970000  -2.3870000
   7.1680000   4.5150000  -1.6710000   4.2040000   6.4690000  -5.7820000
   4.2070000  -4.4560000   2.8660000   4.0500000  -3.0350000   2.9150000
   4.1950000  -2.2720000   1.7930000   4.0290000  -2.8900000   0.5540000
   4.1760000  -2.1590000  -0.6160000   4.4990000  -0.8140000  -0.5760000
   4.6710000  -0.0360000  -1.8460000   5.7440000   0.5170000  -2.0730000
   3.5480000   0.0960000  -2.8220000   2.6100000  -0.8640000  -2.9330000
   1.5240000  -0.7940000  -3.7880000   1.4010000   0.3000000  -4.6090000
   2.3540000   1.3060000  -4.5360000   3.4210000   1.1920000  -3.6460000
   4.6620000  -0.1790000   0.6720000   4.9630000   1.1520000   0.7140000
   4.5060000  -0.9230000   1.8400000   4.2511435  -4.8555409   3.8899231
   3.3525795  -4.9012141   2.3351987   5.1380052  -4.7039503   2.3351987
   3.7807209  -3.9604535   0.5041318   4.0340155  -2.6547851  -1.5876159
   2.7136170  -1.7605985  -2.3042118   0.7742565  -1.5986245  -3.8095436
   0.5599209   0.3776184  -5.3136711   2.2675660   2.1933467  -5.1803175
   4.1748780   1.9917868  -3.6011779   5.0792066   1.6059416   1.5860854
   4.6319471  -0.4307416   2.8156121
