
  371  0.0000000e+00
   5.9300000  -3.4300000  11.0200000   5.3300000  -4.2400000  11.0100000
   5.5800000  -2.7800000  11.7100000   6.8200000  -3.7600000  11.3600000
   5.9700000  -2.5600000   9.8700000   5.0300000  -2.3900000   9.3400000
   6.7900000  -3.1800000   8.8300000   7.9000000  -3.6800000   9.0700000
   6.6300000  -1.2000000  10.2000000   7.7100000  -1.2900000  10.3200000
   6.3700000  -0.8300000  11.1900000   6.3800000  -0.1200000   9.1600000
   5.2900000   0.6900000   9.3200000   4.6800000   0.6100000  10.2100000
   7.2000000   0.0200000   8.0400000   8.1100000  -0.5300000   7.8400000
   4.9000000   1.5900000   8.2700000   4.0000000   2.1900000   8.3900000
   6.9000000   0.9500000   7.0200000   7.5500000   1.1300000   6.1700000
   5.7200000   1.7200000   7.1400000   5.2900000   2.5300000   6.1400000
   4.4400000   2.1900000   5.8400000   6.2400000  -3.2700000   7.5800000
   5.3500000  -2.8100000   7.4100000   6.7400000  -4.1600000   6.5000000
   7.0100000  -5.1400000   6.9000000   7.7000000  -3.7500000   6.1900000
   5.9100000  -4.3000000   5.1500000   4.8400000  -3.7500000   5.0500000
   6.4200000  -4.9200000   4.1000000   7.2800000  -5.4100000   4.3100000
   6.0600000  -4.8700000   2.6500000   6.2800000  -3.8600000   2.2900000
   4.5600000  -5.1900000   2.3100000   4.1100000  -6.3200000   2.4600000
   7.0300000  -5.8200000   1.9100000   6.6900000  -6.8600000   1.9700000
   7.0700000  -5.5500000   0.8600000   8.4600000  -5.8000000   2.2100000
   9.0100000  -4.9200000   2.9800000   9.2700000  -6.6300000   1.6600000
   3.8100000  -4.2000000   1.8300000   4.2000000  -3.2900000   2.0100000
   2.4600000  -4.2700000   1.2100000   2.0200000  -3.2800000   1.2400000
   1.7900000  -4.8100000   1.8800000   2.5100000  -4.7900000  -0.2200000
   3.5800000  -5.0200000  -0.7600000   1.3300000  -4.9100000  -0.8500000
   0.5100000  -4.6300000  -0.3300000   1.1800000  -5.4600000  -2.1600000
   0.8900000  -6.5100000  -2.0500000   2.1100000  -5.3400000  -2.7200000
   0.1200000  -4.7700000  -3.1100000  -0.2400000  -3.6300000  -2.8100000
  -0.4700000  -5.4600000  -4.1200000  -0.1100000  -6.3700000  -4.3400000
  -1.4900000  -4.9100000  -5.0800000  -1.1900000  -3.9200000  -5.4200000
  -2.8600000  -4.7400000  -4.5300000  -3.2100000  -5.4000000  -3.5800000
  -1.4800000  -5.9200000  -6.3300000  -2.3300000  -5.8300000  -7.0000000
  -1.4500000  -6.9300000  -5.9400000  -0.3500000  -5.5200000  -7.2600000
   0.5900000  -5.4500000  -6.7200000  -0.6300000  -4.5600000  -7.6800000
   0.0200000  -6.5100000  -8.4200000  -0.8700000  -7.0500000  -8.7500000
   0.7000000  -7.2200000  -7.9500000   0.5900000  -6.1000000  -9.6700000
  -0.0400000  -5.8700000 -10.4300000   1.8600000  -5.8400000  -9.7700000
   2.7300000  -5.9300000  -8.7500000   2.4200000  -5.9600000  -7.7900000
   3.6400000  -5.5100000  -8.9000000   2.3900000  -5.6400000 -10.9000000
   1.7600000  -5.7000000 -11.6900000   3.3800000  -5.7500000 -11.1100000
  -3.7100000  -3.8600000  -5.1400000  -3.3500000  -3.2400000  -5.8500000
  -5.0700000  -3.7300000  -4.6900000  -5.6900000  -3.3000000  -5.4800000
  -5.3500000  -4.7600000  -4.5000000  -5.1900000  -2.8400000  -3.4000000
  -4.2600000  -2.2000000  -2.9500000  -6.3600000  -2.8900000  -2.7700000
  -7.1000000  -3.4700000  -3.1400000  -6.6200000  -2.1900000  -1.5400000
  -6.6500000  -1.1200000  -1.7800000  -5.6000000  -2.4000000  -0.4200000
  -5.2000000  -3.5800000  -0.2000000  -7.9800000  -2.7100000  -1.0100000
  -8.1800000  -2.0800000  -0.1500000  -7.7700000  -3.7200000  -0.6600000
  -9.2300000  -2.8800000  -1.9300000  -9.6200000  -1.7300000  -2.6300000
  -9.2800000  -0.7600000  -2.2900000  -9.8200000  -4.1200000  -2.1900000
  -9.5300000  -4.9900000  -1.6400000 -10.6000000  -1.8300000  -3.6500000
 -10.7700000  -0.9100000  -4.1800000 -10.7200000  -4.2600000  -3.2600000
 -11.1800000  -5.2100000  -3.4900000 -11.1200000  -3.1000000  -3.9300000
 -11.8700000  -3.1700000  -4.7000000  -5.2000000  -1.3300000   0.1700000
  -5.4100000  -0.5000000  -0.3600000  -4.1600000  -1.3700000   1.1900000
  -3.3900000  -0.6800000   0.8500000  -3.7700000  -2.3500000   1.4400000
  -4.6400000  -0.7200000   2.4500000  -5.6800000  -0.0600000   2.4600000
  -3.9700000  -0.9100000   3.5300000  -3.0600000  -1.3200000   3.3900000
  -4.1700000  -0.4100000   4.9100000  -4.8200000  -1.0100000   5.5500000
  -4.7900000   0.4800000   4.9800000  -2.9000000  -0.0800000   5.6700000
  -1.7600000  -0.0800000   5.2000000  -3.0500000   0.0500000   7.0700000
  -3.9600000   0.1900000   7.4900000  -1.9900000   0.1900000   8.1400000
  -1.4800000   1.1500000   8.0500000  -0.9300000  -0.8700000   8.2400000
  -1.3500000  -1.9900000   8.0500000  -2.7000000   0.1700000   9.4600000
  -3.6600000   0.6800000   9.4300000  -2.7800000  -0.8900000   9.7100000
  -1.8600000   0.7600000  10.6400000  -0.9200000   0.2200000  10.7600000
  -1.6400000   1.8200000  10.5100000  -2.6300000   0.6100000  11.9600000
  -3.5900000   1.1200000  11.8500000  -2.6500000  -0.4600000  12.1800000
  -1.7300000   1.2400000  13.0100000  -1.6800000   2.2800000  12.6700000
  -0.7800000   0.7200000  12.9400000  -2.3400000   1.1600000  14.3700000
  -3.1100000   1.7900000  14.5300000  -1.6200000   1.3300000  15.0600000
  -2.6700000   0.2300000  14.5900000   0.3300000  -0.5300000   8.5800000
   0.5000000   0.4300000   8.8400000   1.4800000  -1.4200000   8.8600000
   1.2000000  -2.3600000   9.3400000   2.1300000  -0.8600000   9.5400000
   2.2800000  -1.6800000   7.6100000   3.4300000  -2.1700000   7.7600000
   1.8100000  -1.2700000   6.4300000   0.9700000  -0.7200000   6.5300000
   2.5100000  -1.3700000   5.1500000   2.9300000  -2.3700000   5.1100000
   1.8600000  -1.2600000   4.2800000   3.6400000  -0.3500000   4.9100000
   3.4100000   0.8200000   4.8900000   4.7900000  -0.9100000   4.5900000
   4.8600000  -1.9000000   4.7700000   5.9600000  -0.2500000   4.0600000
   5.6600000   0.7900000   3.9300000   6.8200000  -0.4800000   4.6900000
   6.2600000  -0.5800000   2.6200000   5.4300000  -1.2000000   1.9500000
   7.4800000  -0.2300000   2.2600000   7.9400000   0.2700000   3.0000000
   8.1000000  -0.3700000   0.9600000   7.6100000  -1.1900000   0.4200000
   9.1300000  -0.6900000   1.0700000   8.1700000   0.9100000   0.1600000
   7.7800000   1.9700000   0.6400000   8.5900000   0.8100000  -1.1600000
   8.9100000  -0.1000000  -1.4700000   8.8500000   2.0000000  -2.0200000
   9.3100000   2.7800000  -1.4300000   7.5000000   2.6300000  -2.5800000
   7.5500000   3.7900000  -3.0800000   9.7900000   1.6600000  -3.1700000
   9.3700000   0.7900000  -3.6600000   9.8500000   2.5000000  -3.8600000
  11.1700000   1.2500000  -2.7000000  11.1100000   0.3600000  -2.0700000
  11.4800000   2.1700000  -2.2000000  12.0600000   0.9400000  -3.9300000
  11.7500000   0.0600000  -4.7800000  13.1400000   1.5900000  -4.0900000
   6.3200000   1.9800000  -2.4000000   6.3200000   1.2300000  -1.7200000
   5.0100000   2.4500000  -2.8700000   4.2900000   1.6400000  -2.9800000
   5.2400000   2.8300000  -3.8700000   4.3300000   3.5700000  -2.0700000
   4.7200000   4.0000000  -0.9700000   3.2900000   4.1600000  -2.6000000
   2.9500000   3.7700000  -3.4700000   2.4700000   5.1300000  -1.9400000
   3.1400000   5.8500000  -1.4500000   1.4300000   4.4400000  -0.9900000
   1.2000000   3.2500000  -1.0700000   1.6500000   6.0000000  -3.0200000
   1.2400000   6.8200000  -2.4300000   0.5000000   5.3600000  -3.7100000
   0.8400000   4.5900000  -4.4000000  -0.1800000   4.9400000  -2.9700000
   2.6400000   6.6500000  -4.0000000   3.0800000   5.9100000  -4.6700000
   3.4300000   7.1400000  -3.4300000   2.1300000   7.3800000  -4.6300000
  -0.3900000   6.4100000  -4.4400000   0.1000000   6.7300000  -5.3600000
  -0.6600000   7.2200000  -3.7700000  -1.2900000   5.8700000  -4.7400000
   0.8200000   5.3000000  -0.1700000   1.0200000   6.2800000  -0.2700000
   0.1400000   4.9400000   1.0900000   0.8500000   4.3100000   1.6300000
  -0.0900000   5.8300000   1.6800000  -1.1500000   4.1700000   0.9800000
  -1.8900000   4.4000000   0.0200000  -1.4100000   3.2900000   1.9100000
  -0.7400000   3.1500000   2.6500000  -2.7000000   2.5200000   2.1000000
  -2.9600000   1.9200000   1.2300000  -2.5100000   1.8300000   2.9200000
  -3.9500000   3.3800000   2.2800000  -3.8900000   4.6300000   2.3200000
  -5.1000000   2.7300000   2.1600000  -5.0600000   1.7300000   2.0500000
  -6.4200000   3.3800000   1.9000000  -6.4500000   4.3100000   2.4700000
  -7.2200000   2.6600000   2.1100000  -6.6400000   3.6500000   0.4000000
  -7.7300000   3.8900000   0.0100000  -5.6000000   3.6200000  -0.4100000
  -4.6600000   3.6200000  -0.0500000  -5.6800000   3.4800000  -1.9000000
  -6.7100000   3.6600000  -2.1900000  -5.3800000   2.0500000  -2.3600000
  -5.0800000   1.2300000  -1.4600000  -4.7400000   4.5800000  -2.4900000
  -3.7400000   4.2900000  -2.1900000  -4.8700000   4.4900000  -3.5700000
  -5.0000000   6.0300000  -2.1100000  -4.6300000   6.1500000  -1.0900000
  -4.2200000   6.9700000  -2.9700000  -3.2700000   6.4500000  -3.0500000
  -4.1100000   7.9300000  -2.4700000  -4.6600000   7.1900000  -3.9400000
  -6.4400000   6.4400000  -2.2000000  -6.5700000   7.5200000  -2.3200000
  -6.8900000   6.0000000  -3.0800000  -6.9600000   6.2200000  -1.2700000
  -5.5700000   1.8100000  -3.6500000  -5.8800000   2.5400000  -4.2800000
  -5.3600000   0.5500000  -4.3200000  -6.0300000  -0.1100000  -3.7700000
  -4.4000000   0.0900000  -4.1200000  -5.7000000   0.5400000  -5.8300000
  -6.5700000   1.2800000  -6.2600000  -4.9900000  -0.2400000  -6.5800000
  -4.2100000  -0.7100000  -6.1400000  -4.8500000  -0.2100000  -8.0600000
  -5.8500000  -0.1600000  -8.5100000  -4.3400000   0.7300000  -8.2500000
  -3.9200000  -1.3000000  -8.6700000  -3.7100000  -2.3200000  -8.0100000
  -3.3900000  -1.1400000  -9.9200000  -3.4500000  -0.2100000 -10.3100000
  -2.7200000  -2.2100000 -10.6700000  -3.2800000  -3.1200000 -10.4600000
  -1.2500000  -2.5100000 -10.2000000  -0.6400000  -3.4300000 -10.6500000
  -2.8200000  -1.9100000 -12.1300000  -2.8900000  -2.7800000 -12.7800000
  -3.7800000  -1.4000000 -12.2000000  -1.6400000  -1.2200000 -12.5800000
  -1.1100000  -1.8400000 -13.0800000  -0.7200000  -1.8000000  -9.2100000
  -1.2300000  -1.0200000  -8.8300000   0.7000000  -1.9600000  -8.8200000
   1.3900000  -1.1800000  -9.1400000   1.1000000  -2.8400000  -9.3300000
   0.7400000  -2.0200000  -7.2300000  -0.2100000  -1.9100000  -6.4900000
   1.9000000  -2.4100000  -6.7200000   2.6300000  -2.5000000  -7.4100000
   2.1800000  -2.5300000  -5.3400000   1.4200000  -3.1500000  -4.8600000
   2.2600000  -1.1800000  -4.6500000   2.4400000  -0.1300000  -5.2100000
   3.5000000  -3.2500000  -5.1600000   4.2600000  -2.5100000  -5.3800000
   3.7000000  -3.4600000  -4.1100000   3.7900000  -4.6400000  -5.8300000
   2.9400000  -5.5600000  -5.8500000   4.9600000  -4.8900000  -6.2200000
   2.1300000  -1.2200000  -3.3400000   1.9400000  -2.1500000  -2.9800000
   1.8500000  -0.1100000  -2.4300000   2.4800000   0.7500000  -2.6400000
   0.8100000   0.1500000  -2.6300000   2.1700000  -0.4200000  -0.8800000
   2.5500000  -1.5300000  -0.4900000   1.9500000   0.6600000  -0.1400000
   1.6300000   1.5000000  -0.6100000   2.2600000   0.8100000   1.2600000
   2.9500000   1.6500000   1.3700000   2.7100000  -0.1500000   1.5400000
   1.1100000   1.0400000   2.1900000   0.0200000   0.3900000   2.1100000
   1.3000000   1.8900000   3.1900000   2.2600000   2.0900000   3.4400000
   0.3800000   2.0700000   4.3400000   0.7300000   1.4400000   5.1600000
  -0.6300000   1.7300000   4.1000000   0.2900000   3.5000000   4.8700000
   0.6300000   4.4600000   4.2200000  -0.2600000   3.5200000   6.0500000
  -0.4600000   2.6500000   6.5200000  -0.5300000   4.6900000   6.9400000
   0.2000000   5.4000000   6.5600000  -0.3000000   4.4000000   8.4100000
  -0.1200000   3.2200000   8.7700000  -1.9400000   5.4100000   6.7400000
  -1.9900000   6.3100000   7.3500000  -2.0200000   5.6900000   5.6900000
  -3.1500000   4.5700000   6.8700000  -3.2900000   3.5400000   7.7700000
  -2.5200000   3.2600000   8.4800000  -4.4300000   4.6300000   6.1800000
  -4.5800000   2.9100000   7.5800000  -4.9400000   2.1200000   8.0900000
  -5.3400000   3.6900000   6.6500000  -4.9900000   5.5400000   5.1900000
  -4.3700000   6.3000000   4.7400000  -6.6600000   3.4900000   6.1000000
  -7.4300000   2.9400000   6.6100000  -6.3000000   5.3700000   4.7200000
  -6.7200000   5.9900000   3.9400000  -7.1900000   4.3600000   5.1600000
  -8.2500000   4.3100000   4.9700000  -0.2200000   5.3400000   9.2400000
   0.8330000  -1.6860000   0.2680000   0.4480000  -0.3620000   0.0370000
   0.2980000   0.0860000  -1.2380000   0.6070000   1.4090000  -1.4790000
   0.4830000   1.9340000  -2.7450000   0.0610000   1.1360000  -3.7800000
  -0.0650000   1.7210000  -5.1200000  -1.0730000   1.6770000  -5.5790000
   0.8990000   2.4840000  -5.8730000   2.2350000   2.2300000  -5.7410000
   3.1560000   2.9510000  -6.4680000   2.7420000   3.9450000  -7.3220000
   1.3940000   4.1900000  -7.4750000   0.4620000   3.4540000  -6.7600000
  -0.2700000  -0.1970000  -3.5440000  -0.7100000  -0.9680000  -4.5510000
  -0.1450000  -0.7090000  -2.2720000   0.8861258  -1.8686976   1.3514202
   0.0954741  -2.3662973  -0.1828339   1.8203206  -1.8647370  -0.1828339
   0.9546512   2.0480906  -0.6539534   0.7217243   2.9921007  -2.9278488
   2.5768697   1.4452181  -5.0501726   4.2286264   2.7301357  -6.3645998
   3.4803761   4.5403951  -7.8790507   1.0560215   4.9741055  -8.1685049
  -0.6139075   3.6384351  -6.8956712  -0.9450895  -1.9149221  -4.3831563
  -0.4009709  -1.7614216  -2.0799382
