
  315  0.0000000e+00
  -0.7400000  -7.7600000   7.4500000  -0.0400000  -7.4600000   8.1100000
  -1.2200000  -8.5100000   7.9300000  -0.2900000  -8.0200000   6.5900000
  -1.6600000  -6.6100000   7.2600000  -2.3600000  -6.9300000   6.4800000
  -0.9000000  -5.4100000   6.7400000   0.1200000  -4.9900000   7.3800000
  -2.5700000  -6.3300000   8.4700000  -1.9500000  -6.1300000   9.3400000
  -3.0900000  -5.4000000   8.2900000  -3.5000000  -7.4700000   8.7700000
  -3.2700000  -8.6100000   8.3700000  -4.5400000  -7.2100000   9.4000000
  -1.3600000  -4.8300000   5.6500000  -2.1000000  -5.3000000   5.1500000
  -0.5600000  -3.8000000   5.0100000  -0.0800000  -3.2800000   5.8400000
  -1.2600000  -3.1200000   4.5300000   0.4600000  -4.3500000   4.0200000
   0.5600000  -5.5200000   3.7700000   1.1800000  -3.4000000   3.4000000
   1.0400000  -2.4300000   3.6500000   2.2000000  -3.7600000   2.4000000
   2.9700000  -4.3500000   2.9000000   1.7200000  -4.3500000   1.6200000
   2.8000000  -2.4700000   1.8100000   2.3900000  -1.3600000   2.0900000
   3.8400000  -2.7300000   0.9700000   4.0300000  -3.6800000   0.6500000
   4.7200000  -1.7100000   0.5300000   4.6600000  -1.0200000   1.3700000
   4.1800000  -1.0200000  -0.7300000   3.5100000  -1.6100000  -1.5700000
   6.1200000  -2.1700000   0.4200000   6.7700000  -1.6600000  -0.2900000
   6.2200000  -3.2300000   0.1800000   6.8200000  -2.0800000   1.8000000
   6.0800000  -2.4400000   2.5200000   6.9700000  -1.0200000   2.0200000
   8.1100000  -2.8900000   1.8500000   8.3000000  -3.9400000   1.1600000
   8.8800000  -2.6900000   2.7600000   4.4800000   0.3300000  -0.8000000
   5.0500000   0.7300000  -0.0700000   4.0200000   1.3600000  -1.8400000
   4.9000000   1.7900000  -2.3100000   3.4700000   0.8400000  -2.6200000
   3.0800000   2.4300000  -1.3000000   2.7100000   2.4800000  -0.1700000
   2.6400000   3.2000000  -2.2400000   2.9700000   3.0100000  -3.1700000
   1.8400000   4.4300000  -2.0400000   1.3400000   4.6100000  -2.9900000
   1.1700000   4.3000000  -1.1800000   2.6800000   5.7600000  -1.8000000
   3.8100000   5.6500000  -1.2900000   2.1100000   6.9100000  -2.1100000
   1.1400000   6.9000000  -2.4000000   2.6800000   8.2600000  -1.9300000
   3.5700000   8.3300000  -2.5500000   3.1400000   8.4600000  -0.4700000
   2.3900000   8.0700000   0.4000000   1.7400000   9.4000000  -2.3800000
   0.9300000   9.3800000  -1.6500000   1.1900000   9.2200000  -3.7700000
   0.4900000   8.3800000  -3.7500000   0.6900000  10.1400000  -4.0800000
   2.3700000  10.8100000  -2.3000000   2.2200000  11.2600000  -1.3200000
   3.4100000  10.6100000  -2.5600000   1.9400000  11.4800000  -3.0500000
   2.1500000   8.9400000  -4.9300000   2.8900000   9.7300000  -4.9900000
   2.5600000   7.9300000  -4.8800000   1.5900000   8.9400000  -5.8700000
   4.3700000   8.9500000  -0.2600000   5.0100000   9.2200000  -0.9900000
   4.9000000   8.9900000   1.1600000   5.7500000   9.6600000   1.1500000
   4.1100000   9.4500000   1.7600000   5.2500000   7.6400000   1.7900000
   5.3100000   7.5300000   2.9700000   5.3400000   6.6200000   0.9400000
   5.0900000   6.7900000  -0.0200000   5.7200000   5.3600000   1.4400000
   6.1600000   4.7500000   0.6500000   6.4500000   5.4300000   2.2500000
   4.5600000   4.6000000   2.1100000   3.4200000   5.1000000   2.1600000
   4.7000000   3.3300000   2.4800000   5.5300000   2.8100000   2.2500000
   3.6800000   2.5700000   3.2300000   3.2300000   3.0800000   4.0800000
   2.8500000   2.3500000   2.5600000   4.2400000   1.2200000   3.6700000
   5.2000000   0.6600000   3.1500000   3.4600000   0.5900000   4.6100000
   2.7700000   1.1100000   5.1300000   3.7000000  -0.8300000   5.0400000
   3.6100000  -1.5500000   4.2400000   2.6800000  -1.3200000   6.1000000
   2.5100000  -2.5300000   6.2100000   5.0200000  -0.9800000   5.6900000
   5.0500000  -1.9700000   6.1400000   5.8400000  -1.1800000   5.0000000
   5.2900000  -0.0300000   6.7400000   5.1700000  -0.4800000   7.5800000
   2.0600000  -0.4300000   6.8300000   2.3500000   0.5300000   6.7000000
   1.0100000  -0.6700000   7.8500000   1.0900000   0.1000000   8.6300000
   1.1100000  -1.6600000   8.3000000  -0.4700000  -0.6300000   7.4600000
  -1.2600000  -1.1400000   8.2200000  -0.8400000  -0.1400000   6.2700000
  -0.1500000   0.3900000   5.7700000  -2.3000000  -0.2300000   5.7300000
  -2.6000000  -1.2500000   5.5000000  -2.9200000   0.1900000   6.5300000
  -2.8300000   0.5600000   4.5200000  -2.1700000   1.3100000   3.8000000
  -4.1300000   0.2800000   4.2500000  -4.6200000  -0.3900000   4.8300000
  -4.8300000   0.8200000   3.0100000  -4.1500000   0.8200000   2.1600000
  -5.2400000   2.2800000   2.9900000  -6.2000000   2.6200000   2.2400000
  -6.0400000  -0.1100000   2.7600000  -6.6800000   0.2300000   1.9500000
  -6.6000000  -0.2800000   3.6800000  -5.5800000  -1.5000000   2.3500000
  -5.0400000  -2.4200000   3.1900000  -4.8500000  -2.2600000   4.2400000
  -5.6900000  -2.0500000   1.0200000  -4.6900000  -3.5200000   2.4400000
  -4.2200000  -4.3500000   2.7600000  -5.0700000  -3.3300000   1.0700000
  -6.2300000  -1.6600000  -0.2000000  -6.6500000  -0.6700000  -0.2600000
  -5.0800000  -4.2100000   0.0000000  -4.6600000  -5.1900000   0.1800000
  -6.1600000  -2.4800000  -1.3500000  -6.6100000  -2.1400000  -2.2700000
  -5.6900000  -3.8300000  -1.1800000  -5.6200000  -4.4900000  -2.0400000
  -4.7300000   3.1000000   3.9700000  -4.0300000   2.7900000   4.6200000
  -5.1400000   4.4800000   4.0400000  -4.9100000   4.8600000   5.0300000
  -6.2000000   4.4000000   3.8000000  -4.4300000   5.2600000   2.9100000
  -4.6400000   5.1200000   1.7000000  -3.6500000   6.2500000   3.3200000
  -3.2200000   6.1600000   4.2200000  -3.2000000   7.3600000   2.4200000
  -3.9800000   7.4600000   1.6700000  -1.9200000   6.9800000   1.6800000
  -1.0500000   6.2300000   2.1500000  -3.0800000   8.7000000   3.1700000
  -3.9200000   8.8400000   3.8500000  -2.1600000   8.8200000   3.7500000
  -3.1200000  10.0100000   2.3300000  -3.2100000   9.8400000   1.0600000
  -2.8800000  11.1600000   2.8600000  -1.9000000   7.2400000   0.3800000
  -2.7500000   7.5900000  -0.0300000  -0.8200000   6.8800000  -0.5200000
  -0.4800000   7.6700000  -1.1900000   0.0400000   6.5600000   0.0600000
  -1.0800000   5.7200000  -1.4700000  -0.8300000   5.8300000  -2.6700000
  -1.6500000   4.6900000  -0.9000000  -1.8200000   4.7800000   0.0900000
  -2.2300000   3.5900000  -1.6700000  -1.5100000   2.8400000  -1.9800000
  -2.9100000   3.9700000  -2.9900000  -2.6200000   3.4300000  -4.0100000
  -3.2400000   2.7700000  -0.7500000  -2.6700000   2.2200000  -0.0100000
  -3.9800000   3.4000000  -0.2600000  -4.0100000   1.6400000  -1.4900000
  -3.2500000   0.5500000  -2.0200000  -2.2300000   0.4900000  -1.6600000
  -5.3100000   1.9300000  -1.8400000  -5.9000000   2.6900000  -1.3600000
  -3.8500000  -0.2900000  -3.0200000  -3.3100000  -1.0400000  -3.5800000
  -5.9200000   1.0900000  -2.8000000  -6.8900000   1.4200000  -3.1400000
  -5.2100000  -0.0400000  -3.3200000  -5.6300000  -0.6800000  -4.0800000
  -3.9100000   4.9500000  -2.9300000  -4.0800000   5.5400000  -2.1300000
  -4.7600000   5.2700000  -4.0800000  -5.6500000   5.7700000  -3.7000000
  -5.1000000   4.3200000  -4.5100000  -4.1200000   6.1700000  -5.1700000
  -4.6900000   6.5200000  -6.2500000  -2.9700000   6.7600000  -4.8600000
  -2.6200000   6.4700000  -3.9500000  -2.0900000   7.5600000  -5.6500000
  -1.4300000   7.9800000  -4.8800000  -2.6800000   8.4100000  -5.9700000
  -1.3000000   6.9200000  -6.8400000  -0.7300000   7.5500000  -7.7100000
  -1.3300000   5.5800000  -6.9000000  -1.7800000   5.2600000  -6.0500000
  -0.7000000   4.5700000  -7.7400000  -1.4500000   4.0600000  -8.3400000
   0.0600000   5.0100000  -8.3900000   0.0600000   3.6400000  -6.8300000
   0.7800000   4.0800000  -5.9100000  -0.2400000   2.3700000  -7.1100000
  -0.9800000   2.2000000  -7.7800000   0.3900000   1.3100000  -6.3100000
   0.3900000   1.5700000  -5.2500000   1.8700000   1.0400000  -6.6800000
   2.3600000   1.1000000  -7.8200000  -0.4900000   0.0600000  -6.5600000
  -0.6500000  -0.1200000  -7.6300000  -1.4500000   0.1900000  -6.0700000
  -0.0100000  -1.2400000  -5.9600000   0.9800000  -1.5000000  -6.3200000
   0.0200000  -1.2100000  -4.4300000  -0.9700000  -1.1400000  -3.9700000
   0.6000000  -0.4000000  -3.9900000   0.4600000  -2.1400000  -4.0500000
  -0.9200000  -2.3800000  -6.3800000  -1.9000000  -2.1900000  -5.9600000
  -0.4900000  -3.2900000  -5.9600000  -0.9700000  -2.4200000  -7.4700000
   2.5500000   0.4800000  -5.6600000   2.0500000   0.3400000  -4.8000000
   4.0700000   0.4600000  -5.5800000   4.4600000   0.6500000  -6.5800000
   4.4100000   1.2200000  -4.8700000   4.6900000  -0.8300000  -5.0800000
   5.8900000  -0.8400000  -4.9300000   3.9700000  -1.9200000  -4.8400000
   3.0600000  -1.9500000  -5.2700000   4.4500000  -3.1600000  -4.3400000
   4.7200000  -2.9700000  -3.3000000   5.3000000  -3.5600000  -4.8900000
   3.3100000  -4.1500000  -4.2000000   2.4200000  -4.1400000  -5.0700000
   3.2500000  -4.8700000  -3.0900000   4.0200000  -4.6200000  -2.5000000
   2.2600000  -5.8300000  -2.7400000   1.3300000  -5.3300000  -3.0100000
   2.3300000  -6.1700000  -1.2200000   3.3800000  -5.9200000  -0.5900000
   2.3500000  -7.1000000  -3.6300000   2.3000000  -6.7700000  -4.6700000
   3.3400000  -7.5300000  -3.4800000   1.3900000  -8.3000000  -3.3800000
   0.0100000  -8.1800000  -3.6500000  -0.2900000  -7.2400000  -4.0700000
   1.9400000  -9.4400000  -2.8000000   3.0000000  -9.5700000  -2.6400000
  -0.8000000  -9.3100000  -3.4700000  -1.8500000  -9.3000000  -3.7500000
   1.1000000 -10.5100000  -2.4900000   1.4800000 -11.4400000  -2.0900000
  -0.2800000 -10.4500000  -2.8000000  -1.1800000 -11.4700000  -2.4900000
  -0.6400000 -12.1800000  -2.1400000   1.1600000  -6.5900000  -0.6600000
   0.3800000  -6.7400000  -1.2800000   1.1100000  -7.0800000   0.6900000
   2.0000000  -7.6800000   0.8900000   0.9700000  -6.2600000   1.4000000
  -0.1000000  -8.0300000   0.9900000  -0.6000000  -8.6900000   0.0700000
  -0.4800000  -8.0100000   2.2900000  -0.0500000  -7.2900000   2.8500000
  -1.5000000  -8.8800000   2.9400000  -2.4300000  -8.7700000   2.3900000
  -1.6900000  -8.4800000   4.3400000  -1.4600000  -9.2400000   5.2800000
  -1.0900000 -10.3600000   2.7000000  -1.7700000 -11.0900000   3.1400000
  -1.0000000 -10.5600000   1.6400000   0.1600000 -10.5300000   3.3000000
   0.0200000 -10.1400000   4.1600000  -2.2400000  -7.3700000   4.5300000
   0.2020000   2.7020000   1.5580000   0.0160000   2.0230000   0.3160000
  -0.2080000   0.6670000   0.2960000  -1.3660000   0.0930000   0.8230000
  -1.5410000  -1.2810000   0.7790000  -0.5650000  -2.0980000   0.2160000
  -0.7450000  -3.5880000   0.1530000  -0.5270000  -4.2330000   1.1510000
  -1.1420000  -4.2920000  -1.0910000  -0.7280000  -3.8480000  -2.3400000
  -1.1440000  -4.5040000  -3.4830000  -1.9300000  -5.6370000  -3.4040000
  -2.3610000  -6.0790000  -2.1650000  -1.9870000  -5.3990000  -1.0050000
   0.5830000  -1.5130000  -0.3160000   1.5330000  -2.3030000  -0.8920000
   0.7500000  -0.1340000  -0.2720000   0.0114031   2.0062187   2.3883982
   1.2351867   3.0741843   1.6212776  -0.4972779   3.5487623   1.6212776
  -2.1401114   0.7316015   1.2734882  -2.4570983  -1.7287466   1.1916584
  -0.0673862  -2.9720820  -2.4197314  -0.8451207  -4.1186345  -4.4689841
  -2.2107761  -6.1828279  -4.3168180  -3.0014102  -6.9705632  -2.0943616
  -2.3575085  -5.7349655  -0.0252803   2.3513452  -1.8958173  -1.2722806
   1.6581346   0.3190963  -0.6962586
