
  421  0.0000000e+00
   1.0940000  -3.5500000  10.8090000   0.6570000  -4.0070000  11.5960000
   1.7160000  -2.8420000  11.1730000   1.6830000  -4.1450000  10.2430000
  -0.0170000  -3.0240000  10.0490000  -0.5440000  -3.8300000   9.5380000
   0.4830000  -2.1150000   8.9600000   1.4870000  -1.4440000   9.1690000
  -1.0340000  -2.2750000  10.8760000  -1.8450000  -1.8320000  10.2970000
  -1.5720000  -3.0060000  11.4790000  -0.5000000  -1.2960000  11.7280000
  -1.2080000  -0.6870000  11.9500000  -0.1960000  -2.1440000   7.7350000
  -0.9290000  -2.8160000   7.5570000  -0.0090000  -1.1510000   6.6660000
   0.9980000  -0.7360000   6.6370000  -0.2340000  -1.7280000   5.7690000
  -1.1030000  -0.0440000   6.7930000  -2.0460000  -0.2560000   7.5030000
  -1.1270000   0.9200000   5.8690000  -0.3700000   1.0160000   5.2080000
  -2.3630000   1.7060000   5.5960000  -2.1180000   2.7680000   5.6210000
  -3.0800000   1.4580000   6.3790000  -2.9980000   1.2700000   4.2400000
  -2.3360000   0.7550000   3.4000000  -4.3150000   1.4100000   4.1360000
  -4.8320000   2.0480000   4.7250000  -5.0450000   0.7320000   3.0080000
  -4.6790000  -0.2950000   2.9920000  -4.8070000   1.3990000   1.6230000
  -4.9360000   2.6440000   1.4690000  -6.4400000   0.5480000   3.5020000
  -6.9140000  -0.0690000   2.7380000  -6.3890000   0.0140000   4.4510000
  -7.2450000   1.6710000   3.4980000  -7.6720000   1.8800000   2.6640000
  -4.5750000   0.6490000   0.5420000  -4.2370000  -0.2950000   0.6630000
  -4.5210000   1.1440000  -0.8240000  -5.5190000   1.0930000  -1.2600000
  -4.2270000   2.1930000  -0.8510000  -3.4690000   0.3470000  -1.6580000
  -2.5140000  -0.2060000  -1.1520000  -3.6030000   0.3440000  -2.9800000
  -4.4160000   0.8120000  -3.3540000  -2.9020000  -0.5010000  -3.9440000
  -2.9820000  -1.5650000  -3.7220000  -1.4170000  -0.2570000  -4.1070000
  -1.0250000   0.4800000  -4.9700000  -3.5970000  -0.2250000  -5.2310000
  -3.5480000   0.8370000  -5.4690000  -3.1170000  -0.7430000  -6.0620000
  -5.0100000  -0.8110000  -5.3850000  -5.1600000  -1.8790000  -5.2290000
  -5.6790000  -0.3750000  -4.6430000  -5.4520000  -0.4940000  -6.8300000
  -5.0480000   0.4690000  -7.1400000  -5.0140000  -1.1890000  -7.5460000
  -6.9700000  -0.5600000  -6.9850000  -7.5740000  -0.5400000  -6.0780000
  -7.2760000   0.3200000  -7.5510000  -7.3230000  -1.7390000  -7.8690000
  -7.3250000  -2.6140000  -7.3650000  -8.2940000  -1.6810000  -8.1420000
  -6.6720000  -1.8390000  -8.6350000  -0.5830000  -0.9710000  -3.3030000
  -0.8670000  -1.5720000  -2.5420000   0.8960000  -0.9050000  -3.4810000
   1.2110000  -1.1060000  -4.5050000   1.3550000  -1.6950000  -2.8880000
   1.4350000   0.5260000  -3.1370000   0.9130000   1.2820000  -2.3670000
   2.5910000   0.8470000  -3.7630000   3.1280000   0.1540000  -4.2650000
   2.8960000   2.2620000  -4.1160000   2.5500000   2.8990000  -3.3010000
   2.3720000   2.5420000  -5.5650000   2.4240000   1.7270000  -6.4390000
   4.4470000   2.3930000  -4.1090000   4.9080000   1.4130000  -3.9840000
   4.6510000   2.7110000  -5.1320000   5.0810000   3.4380000  -3.2310000
   4.6270000   3.2530000  -2.2570000   6.6170000   3.3860000  -3.1940000
   7.2540000   3.6660000  -4.0330000   6.9290000   2.3840000  -2.8970000
   6.9680000   3.9910000  -2.3570000   4.6660000   4.8920000  -3.5900000
   4.8580000   5.1530000  -4.6310000   5.1130000   5.5950000  -2.8870000
   3.5780000   4.9220000  -3.5230000   1.7790000   3.7260000  -5.6320000
   1.6680000   4.2970000  -4.8060000   1.3900000   4.2600000  -6.9420000
   1.3780000   5.3460000  -6.8440000   2.2170000   3.9890000  -7.5980000
   0.1880000   3.6680000  -7.6820000  -0.2980000   4.1680000  -8.6840000
  -0.3550000   2.4700000  -7.3230000  -0.1780000   2.0280000  -6.4320000
  -1.2860000   1.7430000  -8.1870000  -1.3500000   0.6660000  -8.0320000
  -0.9420000   1.8840000  -9.2120000  -2.6980000   2.2020000  -8.0720000
  -3.5320000   1.9370000  -8.9480000  -3.0530000   2.9410000  -6.9840000
  -2.2760000   3.0600000  -6.3500000  -4.2170000   3.8700000  -7.0110000
  -5.1450000   3.3050000  -6.9300000  -4.1080000   4.4980000  -7.8960000
  -4.2150000   4.7150000  -5.7280000  -3.9120000   4.2100000  -4.6190000
  -4.4160000   6.0050000  -5.8020000  -4.7120000   6.4170000  -6.6750000
  -3.9350000   6.9510000  -4.7360000  -2.9650000   6.6030000  -4.3830000
  -4.7960000   6.9230000  -3.4470000  -5.9580000   6.4780000  -3.4870000
  -3.6240000   8.3610000  -5.2640000  -3.1690000   8.2620000  -6.2500000
  -2.8410000   8.7030000  -4.5870000  -4.7650000   9.3320000  -5.3810000
  -5.5470000   9.6500000  -6.4410000  -5.3890000   9.3210000  -7.4580000
  -5.3500000  10.1200000  -4.2740000  -6.5520000  10.4660000  -6.1210000
  -7.3230000  10.6180000  -6.7560000  -6.4660000  10.8930000  -4.8480000
  -4.9900000  10.3860000  -2.9070000  -4.0780000   9.9740000  -2.4980000
  -7.2740000  11.7470000  -4.0150000  -8.1490000  12.2610000  -4.3840000
  -5.6870000  11.2910000  -2.1920000  -5.4580000  11.4660000  -1.1510000
  -6.8770000  11.9130000  -2.6770000  -7.4330000  12.5350000  -1.9910000
  -4.3630000   7.5430000  -2.3770000  -3.4520000   7.9780000  -2.4020000
  -4.9510000   7.3650000  -1.0650000  -5.0040000   8.3190000  -0.5400000
  -5.9140000   6.8700000  -1.1980000  -4.2450000   6.4760000  -0.1210000
  -4.3260000   6.6890000   1.0770000  -3.4780000   5.4300000  -0.5860000
  -3.4860000   5.2980000  -1.5870000  -2.4270000   4.7950000   0.1960000
  -2.8320000   3.9610000   0.7690000  -1.6990000   4.4200000  -0.5240000
  -1.6630000   5.6800000   1.1730000  -1.3730000   6.8510000   0.8720000
  -1.3480000   5.1410000   2.3760000  -1.6740000   4.2190000   2.6290000
  -0.6520000   6.0490000   3.3770000  -1.3170000   6.8910000   3.5690000
   0.2220000   6.5190000   2.9250000  -0.3010000   5.2990000   4.7330000
  -0.2590000   4.1040000   4.7730000   0.0800000   6.0810000   5.7400000
   0.5900000   6.9330000   5.5570000   0.1450000   5.6320000   7.1230000
   0.3920000   6.5410000   7.6710000   1.3730000   4.6940000   7.3080000
   2.5050000   5.0190000   6.9300000  -1.2200000   5.1630000   7.6970000
  -1.1190000   4.8760000   8.7430000  -1.5310000   4.2800000   7.1390000
  -2.4310000   6.1090000   7.5820000  -2.7540000   6.2360000   6.5480000
  -3.6690000   5.5910000   8.3540000  -3.5350000   5.7090000   9.4290000
  -3.8480000   4.5260000   8.2050000  -4.5660000   6.1290000   8.0480000
  -2.2970000   7.5540000   8.0880000  -1.7870000   7.6420000   9.0470000
  -3.2790000   8.0210000   8.0210000  -1.7460000   8.2050000   7.4100000
   1.0870000   3.4980000   7.8010000   0.1160000   3.2920000   7.9840000
   2.0470000   2.3310000   7.8930000   2.9600000   2.6320000   8.4080000
   1.6140000   1.5470000   8.5140000   2.4970000   1.6460000   6.5950000
   3.0800000   0.5690000   6.5950000   2.2430000   2.2670000   5.4580000
   1.6060000   3.0410000   5.5800000   2.5830000   1.9540000   4.0710000
   3.5190000   1.3970000   4.1050000   2.7330000   2.9000000   3.5490000
   1.5220000   1.1330000   3.3760000   0.9790000   0.2520000   4.0490000
   1.3350000   1.3860000   2.0940000   1.7920000   2.1580000   1.6300000
   0.2620000   0.6630000   1.3010000  -0.7290000   0.8670000   1.7090000
   0.3450000   1.0220000   0.2750000   0.4150000  -0.8730000   1.2910000
   1.3920000  -1.4150000   1.7330000  -0.7710000  -1.5070000   0.9510000
  -1.5700000  -0.9550000   0.6740000  -0.8370000  -2.9200000   1.0970000
  -1.7040000  -3.1410000   1.7190000   0.0510000  -3.3400000   1.5690000
  -1.0250000  -3.6200000  -0.2300000  -0.3340000  -3.3920000  -1.1890000
  -1.9840000  -4.5240000  -0.3030000  -2.7440000  -4.5880000   0.3600000
  -2.2860000  -5.3390000  -1.5610000  -1.4930000  -6.0620000  -1.7500000
  -2.4870000  -4.4300000  -2.7940000  -3.5220000  -3.8130000  -2.8740000
  -3.5750000  -6.1200000  -1.2870000  -3.9650000  -6.5540000  -2.2080000
  -4.2070000  -5.3590000  -0.8300000  -3.2930000  -7.2420000  -0.3560000
  -3.2160000  -6.7810000   0.6290000  -2.3330000  -7.6850000  -0.6210000
  -4.4280000  -8.3120000  -0.3010000  -5.6020000  -7.8700000  -0.6470000
  -4.1690000  -9.5120000  -0.0210000  -1.6390000  -4.4990000  -3.8090000
  -0.7340000  -4.9170000  -3.6510000  -1.7660000  -3.8570000  -5.1180000
  -2.5280000  -3.0810000  -5.0470000  -2.2600000  -4.5110000  -5.8360000
  -0.5200000  -3.3000000  -5.7270000   0.5160000  -3.5270000  -5.1470000
  -0.7010000  -2.4670000  -6.7070000  -1.6460000  -2.2520000  -6.9920000
   0.3770000  -1.5840000  -7.2030000   0.4220000  -0.6600000  -6.6270000
   0.0960000  -1.1930000  -8.1810000   1.8060000  -2.0470000  -7.2500000
   2.0920000  -3.1780000  -7.6040000   2.7440000  -1.0920000  -7.1760000
   2.4170000  -0.1720000  -6.9190000   4.1860000  -1.3850000  -7.0140000
   4.5170000  -2.0770000  -7.7870000   4.6480000  -1.9300000  -5.6330000
   4.2070000  -1.4590000  -4.5870000   4.8840000  -0.0680000  -7.2500000
   4.7820000   0.5140000  -6.3340000   4.4790000   0.4760000  -8.1030000
   6.4190000  -0.2790000  -7.4360000   6.9630000  -0.8960000  -8.5680000
   6.2750000  -1.3550000  -9.2620000   7.3170000   0.1670000  -6.4510000
   7.0210000   0.7260000  -5.5760000   8.3720000  -1.0120000  -8.8090000
   8.8110000  -1.4840000  -9.6760000   8.7030000   0.0980000  -6.6210000
   9.3810000   0.4210000  -5.8440000   9.2070000  -0.5070000  -7.8230000
  10.2530000  -0.4900000  -8.0930000   5.5390000  -2.9490000  -5.6720000
   5.8390000  -3.1740000  -6.6100000   5.9690000  -3.8310000  -4.5450000
   7.0420000  -4.0150000  -4.6010000   5.8550000  -3.2560000  -3.6270000
   5.2070000  -5.1390000  -4.1600000   5.4900000  -5.7080000  -3.0760000
   4.2760000  -5.5850000  -4.9630000   4.1640000  -5.1890000  -5.8850000
   3.5690000  -6.8150000  -4.6500000   4.2170000  -7.5600000  -4.1880000
   3.2010000  -7.2570000  -5.5760000   2.4130000  -6.5870000  -3.6320000
   1.1930000  -6.4790000  -3.8920000   2.8230000  -6.4470000  -2.3500000
   3.7840000  -6.6570000  -2.1180000   1.8740000  -6.0110000  -1.2300000
   0.9400000  -5.6950000  -1.6930000   2.4270000  -4.7820000  -0.5340000
   2.0820000  -4.4790000   0.6130000   1.4940000  -7.2140000  -0.2920000
   0.7510000  -6.8430000   0.4140000   2.4200000  -7.6140000   0.1220000
   0.8340000  -8.4450000  -0.9320000   1.6210000  -8.8030000  -1.5950000
   0.0060000  -8.1240000  -1.5640000   0.3300000  -9.4560000   0.0300000
  -0.5640000  -9.1110000   0.5500000   1.0240000  -9.6630000   0.8450000
   0.0760000 -10.7350000  -0.7530000   1.0750000 -11.1580000  -0.8540000
  -0.2830000 -10.5630000  -1.7680000  -0.9310000 -11.5430000  -0.0120000
  -1.8610000 -11.2800000  -0.3040000  -0.7270000 -12.4940000  -0.2860000
  -0.8650000 -11.4960000   0.9950000   3.2730000  -4.0510000  -1.2140000
   3.4870000  -4.2970000  -2.1700000   3.7270000  -2.7770000  -0.6150000
   2.7940000  -2.2790000  -0.3500000   4.3440000  -2.2040000  -1.3080000
   4.5220000  -3.0380000   0.6720000   5.4460000  -3.8520000   0.7190000
   4.0900000  -2.3860000   1.8160000   3.2770000  -1.8110000   1.6470000
   4.5230000  -2.7800000   3.1210000   5.4120000  -3.4090000   3.0670000
   3.4870000  -3.5970000   3.9210000   3.8090000  -4.5400000   4.6630000
   4.9340000  -1.5470000   3.8910000   5.0970000  -1.8200000   4.9340000
   4.1140000  -0.8320000   3.9650000   6.2040000  -0.8770000   3.4990000
   7.0670000  -1.3960000   2.6060000   6.8900000  -2.2400000   1.9560000
   6.7520000   0.3860000   3.9390000   8.2420000  -0.6300000   2.5590000
   8.9320000  -0.8260000   1.8480000   7.9970000   0.5470000   3.2690000
   6.2960000   1.3660000   4.8740000   5.3380000   1.2720000   5.3630000
   8.6420000   1.7570000   3.4330000   9.5280000   1.8900000   2.8290000
   6.9960000   2.6110000   4.9960000   6.5300000   3.3750000   5.6000000
   8.1510000   2.8200000   4.2770000   8.7190000   3.7370000   4.3400000
   2.1320000  -3.3050000   3.6950000   1.9330000  -2.5820000   3.0180000
   1.0080000  -3.6690000   4.5500000   0.0950000  -3.1550000   4.2510000
   1.1650000  -3.2720000   5.5530000   0.7630000  -5.1720000   4.5620000
   0.2460000  -5.7010000   5.5350000   1.0290000  -5.8430000   3.3580000
   1.4300000  -5.3780000   2.5560000   0.6690000  -7.2790000   3.2880000
   1.0040000  -7.7510000   4.2110000   1.2130000  -7.7330000   2.4590000
  -0.8490000  -7.6000000   3.1130000  -1.7360000  -6.7040000   3.0330000
  -1.2340000  -8.8960000   3.3040000  -0.5180000  -9.6050000   3.2460000
  -2.5640000  -9.4510000   3.2540000  -2.8160000  -9.6750000   2.2180000
  -3.7240000  -8.6530000   3.8180000  -4.8050000  -8.7350000   3.2020000
  -2.5760000 -10.7280000   4.1220000  -3.5200000 -11.1710000   3.8040000
  -2.6260000 -10.3810000   5.1540000  -1.4400000 -11.7280000   3.8920000
  -0.7340000 -11.4910000   2.8930000  -1.4950000 -12.8020000   4.4790000
  -3.6680000  -7.9450000   4.9060000  -2.8170000  -7.9120000   5.4500000
  -4.8210000  -7.4050000   5.5590000  -4.5520000  -7.3370000   6.6130000
  -5.6490000  -8.0930000   5.3840000  -5.3800000  -6.1020000   4.9530000
  -6.4580000  -5.6120000   5.4360000  -4.7970000  -5.5690000   3.8720000
  -3.9660000  -5.9440000   3.4360000  -5.0250000  -4.1940000   3.4830000
  -5.8800000  -3.6690000   3.9080000  -5.3480000  -3.9670000   1.9910000
  -4.3940000  -3.9660000   1.1600000  -3.7600000  -3.3690000   3.9740000
  -3.7980000  -2.4140000   3.4490000  -2.9070000  -3.8710000   3.5160000
  -3.7540000  -3.3510000   5.5020000  -4.4190000  -2.3810000   6.2960000
  -4.9730000  -1.5510000   5.8830000  -2.9960000  -4.4680000   6.1250000
  -2.3710000  -5.1420000   5.5580000  -4.5170000  -2.5980000   7.7060000
  -4.9080000  -1.7830000   8.2970000  -3.0950000  -4.5430000   7.5360000
  -2.6130000  -5.3670000   8.0400000  -3.8790000  -3.7440000   8.3230000
  -3.8770000  -4.0360000   9.6860000  -3.0970000  -4.4960000  10.0050000
  -6.5660000  -3.8360000   1.6750000   4.6940000   4.2710000   1.1960000
   5.6330000   3.2140000   0.6870000   4.8950000   2.0260000   0.1280000
   3.4180000   2.1350000   0.3290000   2.8280000   1.0200000   1.1620000
   2.6980000  -0.2270000   0.3010000   1.5650000  -0.2100000  -0.6670000
   1.5540000   1.4260000   1.6190000   1.2460000   2.7240000   1.6950000
   1.5520000   3.3920000   2.6460000   0.5050000   3.2350000   0.5160000
  -0.7950000   3.5310000   0.6010000  -1.6090000   4.0180000  -0.5370000
  -2.7980000   3.4370000  -0.8930000  -3.5320000   3.9280000  -1.9690000
  -3.0750000   4.9990000  -2.6910000  -3.7510000   5.5310000  -3.7500000
  -3.0370000   6.0700000  -4.8470000  -1.8830000   5.5840000  -2.3400000
  -1.1480000   5.0940000  -1.2670000   4.6981871   4.2662867   2.2959819
   5.0196779   5.2567297   0.8323094   3.6767636   4.0637339   0.8323094
   6.2600495   3.6478566  -0.1058288   6.2447923   2.8669613   1.5327389
   5.1018142   1.9553430  -0.9500703   5.2437766   1.1294261   0.6613950
   3.2065774   3.0908661   0.8306178   2.9550543   2.0683016  -0.6666066
   3.4753903   0.7976001   2.0230599   3.6313825  -0.3469814  -0.2685625
   2.4979985  -1.0583198   0.9930309   0.6126966  -0.1957112  -0.1166237
   1.6364898   0.6871734  -1.2994310   1.6095405  -1.1089144  -1.2994310
   1.0321539   3.3718630  -0.4397077  -1.2909575   3.4055382   1.5747995
  -3.1756759   2.5750463  -0.3234416  -4.4858295   3.4527127  -2.2416007
  -2.2105906   6.6938581  -4.4757204  -2.6316489   5.2506719  -5.4588758
  -3.7139154   6.6843236  -5.4588758  -1.5077245   6.4456380  -2.9116190
  -0.1921913   5.5673602  -0.9980019
