
  371  0.0000000e+00
   6.3270000  -4.3720000  -8.3660000   5.5160000  -4.5920000  -8.9260000
   7.0230000  -3.8140000  -8.8390000   6.6790000  -5.3070000  -8.2160000
   5.8510000  -3.6850000  -7.2590000   5.1400000  -4.3280000  -6.7390000
   5.0610000  -2.4140000  -7.5660000   5.4800000  -1.5470000  -8.3200000
   6.8740000  -3.5120000  -6.1420000   6.5920000  -2.8110000  -5.3560000
   7.7880000  -3.0600000  -6.5280000   7.0880000  -4.9760000  -5.5710000
   7.9050000  -4.8390000  -4.8630000   7.4310000  -5.6490000  -6.3580000
   5.9710000  -5.6310000  -4.7490000   5.0240000  -5.3160000  -5.1860000
   6.1440000  -6.7050000  -4.8220000   6.0450000  -5.1770000  -3.3170000
   5.4370000  -4.4140000  -3.0580000   6.7180000  -5.7120000  -2.3110000
   7.3830000  -6.8080000  -2.4220000   7.5380000  -7.2640000  -1.5350000
   7.6290000  -7.1620000  -3.3350000   6.6350000  -5.2830000  -1.0930000
   7.2260000  -5.6650000  -0.3680000   5.9510000  -4.5980000  -0.8060000
   3.8230000  -2.2010000  -7.0890000   3.5390000  -2.8720000  -6.3900000
   3.1460000  -0.8830000  -7.0910000   2.1150000  -1.1280000  -6.8350000
   3.1880000  -0.5200000  -8.1180000   3.6360000   0.0870000  -6.0300000
   4.5210000  -0.2710000  -5.2230000   2.9870000   1.2660000  -6.0620000
   2.0810000   1.3000000  -6.5070000   3.1810000   2.3870000  -5.1560000
   4.2410000   2.3660000  -4.9020000   2.3580000   2.2320000  -3.8180000
   1.1990000   1.8580000  -3.8500000   2.7980000   3.7120000  -5.8270000
   1.7180000   3.8150000  -5.9390000   3.2310000   3.6730000  -6.8260000
   3.2970000   4.9110000  -4.9840000   2.6530000   4.9450000  -4.1050000
   4.3580000   4.7720000  -4.7740000   3.0500000   6.2000000  -5.8100000
   3.6640000   7.2660000  -5.5080000   2.2470000   6.1390000  -6.8230000
   2.9140000   2.5110000  -2.6390000   3.8420000   2.9070000  -2.6890000
   2.2270000   2.5960000  -1.3850000   1.7690000   1.6240000  -1.2000000
   3.0120000   2.7860000  -0.6530000   1.3080000   3.7940000  -1.1320000
   1.2670000   4.7610000  -1.9470000   0.7750000   3.8250000   0.0860000
   1.1270000   3.0950000   0.6890000   0.0200000   4.9390000   0.6530000
  -0.5510000   5.5350000  -0.0590000  -0.8370000   4.5090000   1.1710000
   0.7680000   6.0050000   1.4470000   1.9810000   6.0020000   1.3950000
   0.0020000   6.9440000   2.0600000  -0.9770000   6.7050000   2.1390000
   0.5830000   7.9950000   2.9850000   1.6640000   7.8640000   3.0200000
   0.3220000   7.6810000   4.4210000  -0.1570000   8.5580000   5.1830000
   0.1160000   9.3900000   2.6040000   0.5300000  10.0580000   3.3590000
  -0.9700000   9.3110000   2.5550000   0.7380000   9.7400000   1.2640000
   0.3950000   9.0140000   0.5270000   0.0300000  11.0460000   0.8620000
   0.2850000  11.8950000   1.4970000   0.5410000  11.3020000  -0.0660000
  -1.0500000  10.9280000   0.7740000   2.2610000   9.8250000   1.1260000
   2.7220000   8.8760000   1.4020000   2.7370000  10.6360000   1.6770000
   2.5110000   9.9470000   0.0720000   0.5830000   6.4690000   4.7940000
   0.8520000   5.8120000   4.0760000   0.3550000   5.8140000   6.1990000
   0.8200000   4.8320000   6.1190000   0.8560000   6.3430000   7.0100000
  -1.1340000   5.6390000   6.5990000  -1.4410000   5.6750000   7.8030000
  -2.0080000   5.4430000   5.6220000  -1.5540000   5.2160000   4.7490000
  -3.4770000   5.5130000   5.6870000  -3.7400000   6.4690000   6.1410000
  -4.2250000   4.5250000   6.6510000  -5.3810000   4.8360000   7.0130000
  -4.0860000   5.4880000   4.2720000  -5.1260000   5.8140000   4.2830000
  -4.1450000   4.4530000   3.9350000  -3.3040000   6.2870000   3.2630000
  -3.6690000   7.4650000   3.0680000  -2.4060000   5.6950000   2.6460000
  -3.6070000   3.4100000   7.0930000  -2.7380000   3.1510000   6.6470000
  -4.1400000   2.4760000   8.0190000  -3.3210000   1.8570000   8.3840000
  -4.3530000   2.9970000   8.9520000  -5.1440000   1.4980000   7.3980000
  -5.4800000   1.6380000   6.1570000  -5.4750000   0.4230000   8.0940000
  -5.1020000   0.3720000   9.0320000  -6.3270000  -0.5810000   7.5350000
  -7.2240000  -0.0420000   7.2300000  -6.6580000  -1.3160000   8.2690000
  -5.7640000  -1.4650000   6.4450000  -4.5450000  -1.7570000   6.4400000
  -6.6080000  -2.0430000   5.6120000  -7.6030000  -1.8680000   5.6000000
  -6.0840000  -3.0240000   4.6500000  -5.3540000  -3.5770000   5.2410000
  -5.3230000  -2.2420000   3.5740000  -5.7280000  -1.2110000   3.1730000
  -7.1440000  -3.9970000   4.1040000  -7.7700000  -3.4070000   3.4350000
  -6.5700000  -4.6860000   3.4850000  -8.0260000  -4.7790000   5.0500000
  -7.6220000  -6.0610000   5.4480000  -6.6610000  -6.4510000   5.1490000
  -9.3420000  -4.2840000   5.3700000  -9.6360000  -3.3210000   4.9780000
  -8.5040000  -6.7910000   6.2210000  -8.1880000  -7.7700000   6.5490000
 -10.2430000  -5.1210000   6.1690000 -11.1010000  -4.7120000   6.6800000
  -9.7240000  -6.3160000   6.6760000 -10.5640000  -6.9910000   7.5520000
 -11.5110000  -6.8700000   7.4520000  -4.2420000  -2.7650000   2.9780000
  -3.9930000  -3.7170000   3.2030000  -3.6180000  -2.2580000   1.7510000
  -4.3730000  -2.0540000   0.9910000  -3.0670000  -2.9820000   1.1510000
  -2.7170000  -1.0270000   2.0190000  -1.4750000  -1.0970000   1.9720000
  -3.3870000   0.1360000   2.1430000  -4.3900000   0.0410000   2.0720000
  -2.7780000   1.4770000   2.4030000  -3.5350000   2.2050000   2.6940000
  -2.4230000   1.9290000   1.4760000  -1.7270000   1.4240000   3.4820000
  -1.9850000   0.8690000   4.5540000  -0.5530000   2.0260000   3.1100000
  -0.3690000   2.6190000   2.3140000   0.6400000   1.9610000   4.0420000
   0.5520000   2.7520000   4.7880000   0.7570000   0.9890000   4.5210000
   1.9800000   2.1120000   3.2870000   1.9950000   2.0680000   2.0310000
   3.0530000   2.2320000   4.0500000   2.9020000   2.2640000   5.0480000
   4.3470000   2.5840000   3.4100000   5.1700000   2.2710000   4.0530000
   4.4540000   1.9500000   2.5290000   4.4260000   4.0800000   2.9240000
   3.7550000   4.9660000   3.4040000   5.3720000   4.3410000   1.9750000
   5.9520000   3.5620000   1.6980000   5.4950000   5.6050000   1.2080000
   4.4890000   6.0180000   1.1270000   6.3000000   5.2630000  -0.1120000
   7.2000000   4.4110000  -0.1650000   6.1720000   6.6490000   2.0820000
   6.1380000   6.4330000   3.1500000   7.2440000   6.7050000   1.8920000
   5.5890000   7.8870000   1.8860000   6.0310000   8.3060000   1.1440000
   5.8760000   5.8030000  -1.2540000   5.0790000   6.4210000  -1.2030000
   6.6060000   5.6140000  -2.5020000   7.6630000   5.8560000  -2.3870000
   6.3090000   6.2600000  -3.3280000   6.4890000   4.1510000  -3.0830000
   5.6430000   3.3600000  -2.6950000   7.2300000   3.8840000  -4.1440000
   7.8850000   4.6180000  -4.3730000   7.2140000   2.5520000  -4.8680000
   6.2030000   2.2000000  -5.0710000   7.8580000   1.4920000  -3.9060000
   8.9750000   1.7100000  -3.4230000   7.8890000   2.6340000  -6.1570000
   8.8840000   3.0400000  -5.9760000   7.9700000   1.6350000  -6.5860000
   7.0060000   3.3970000  -7.1510000   6.9540000   4.7330000  -7.2750000
   7.5200000   5.3950000  -6.6360000   6.0290000   2.9130000  -8.1340000
   5.8950000   5.1120000  -8.1150000   5.4560000   6.0190000  -8.1900000
   5.3400000   4.0150000  -8.7620000   5.5180000   1.6350000  -8.5560000
   6.0330000   0.7990000  -8.1070000   4.3170000   3.9260000  -9.7150000
   3.7400000   4.7480000 -10.1130000   4.4710000   1.5000000  -9.5010000
   4.0640000   0.5200000  -9.7020000   3.8740000   2.6550000 -10.1400000
   2.9980000   2.6010000 -10.7690000   7.0600000   0.3980000  -3.6990000
   6.1690000   0.3090000  -4.1660000   7.3830000  -0.5830000  -2.7160000
   7.2860000  -1.6040000  -3.0850000   8.3950000  -0.4430000  -2.3360000
   6.5610000  -0.4290000  -1.3520000   6.9410000  -1.2040000  -0.4850000
   5.6970000   0.5260000  -1.1190000   5.5380000   1.2500000  -1.8050000
   4.8020000   0.5430000   0.0400000   5.3920000   0.2510000   0.9100000
   4.4260000   1.5570000   0.1730000   3.5980000  -0.4510000   0.0100000
   3.0540000  -0.7760000  -1.0780000   3.0700000  -0.7480000   1.1890000
   3.6110000  -0.3910000   1.9640000   1.6900000  -1.2680000   1.3310000
   1.3870000  -0.8960000   2.3100000   1.0460000  -1.0300000   0.4850000
   1.8560000  -2.8490000   1.4030000   2.8850000  -3.4270000   1.1650000
   0.6960000  -3.4100000   1.5950000  -0.0670000  -2.7490000   1.6200000
   0.3580000  -4.8410000   1.5640000   1.1500000  -5.3110000   0.9800000
  -0.9150000  -5.1100000   0.6840000  -1.9790000  -5.5930000   1.0910000
   0.2820000  -5.4750000   2.9360000  -0.6860000  -5.1690000   3.3330000
   1.5150000  -5.0650000   3.8800000   1.6900000  -3.9910000   3.9370000
   2.3440000  -5.5120000   3.3310000   0.1780000  -7.0040000   2.8150000
   1.1420000  -7.4370000   2.5510000  -0.5240000  -7.1990000   2.0040000
  -0.1530000  -7.4200000   3.7670000   1.4520000  -5.4990000   5.3460000
   1.6310000  -6.5490000   5.5750000   2.2140000  -4.8620000   5.7970000
   0.5110000  -5.3210000   5.8660000  -0.7570000  -4.9240000  -0.6290000
   0.1070000  -4.5830000  -1.0240000  -1.7790000  -5.1480000  -1.6530000
  -2.5940000  -5.7790000  -1.2970000  -1.2820000  -5.7230000  -2.4350000
  -2.4630000  -3.9050000  -2.0920000  -2.5300000  -2.8980000  -1.3540000
  -3.1210000  -3.9640000  -3.2500000  -3.2200000  -4.8640000  -3.6960000
  -3.5010000  -2.7720000  -3.9800000  -2.6410000  -2.1210000  -4.1380000
  -3.7180000  -3.1380000  -4.9840000  -4.6610000  -1.8290000  -3.5000000
  -5.0460000  -0.9030000  -4.2190000  -5.1780000  -2.1830000  -2.3160000
  -4.7130000  -2.9410000  -1.8380000  -6.4000000  -1.5620000  -1.8030000
  -7.0650000  -1.2700000  -2.6150000  -6.1230000  -0.2770000  -0.9350000
  -5.0370000  -0.1090000  -0.4290000  -7.0320000  -2.6570000  -0.9120000
  -6.3610000  -3.0130000  -0.1310000  -7.8890000  -2.1160000  -0.5100000
  -7.6140000  -3.7810000  -1.7250000  -7.5650000  -3.8500000  -2.9940000
  -8.2420000  -4.6660000  -1.0740000  -7.0150000   0.7370000  -0.8610000
  -7.9330000   0.6510000  -1.2750000  -6.9130000   1.9590000  -0.1020000
  -7.8020000   2.5810000  -0.2110000  -6.8650000   1.6770000   0.9490000
  -5.6080000   2.7500000  -0.3480000  -4.8890000   3.1790000   0.5590000
  -5.3980000   3.0720000  -1.6320000  -6.0200000   2.6630000  -2.3150000
  -4.2080000   3.8110000  -2.1300000  -4.2600000   3.8790000  -3.2170000
  -2.8980000   2.9930000  -1.9420000  -1.8270000   3.4000000  -2.3520000
  -4.0320000   5.1470000  -1.4660000  -3.6790000   4.9750000  -0.4490000
  -3.3160000   5.7780000  -1.9930000  -5.3280000   5.9880000  -1.4960000
  -5.6280000   5.9640000  -2.5440000  -6.0660000   5.5740000  -0.8090000
  -4.9850000   7.4310000  -1.0220000  -4.2560000   7.5430000  -0.2200000
  -4.4580000   7.9060000  -1.8490000  -6.2850000   8.1970000  -0.6970000
  -6.9100000   8.0360000  -1.5750000  -6.7720000   7.6570000   0.1150000
  -6.0730000   9.6080000  -0.4350000  -6.9360000  10.1310000  -0.4150000
  -5.4490000   9.7370000   0.3490000  -5.4910000  10.1000000  -1.0980000
  -2.8560000   1.8500000  -1.2920000  -3.7050000   1.5030000  -0.8670000
  -1.6400000   1.0020000  -1.1390000  -1.7320000   0.3090000  -0.3040000
  -0.8720000   1.7220000  -0.8540000  -1.2410000   0.2490000  -2.4430000
  -1.6670000   0.6680000  -3.5140000  -0.4110000  -0.7730000  -2.3400000
  -0.2880000  -1.0950000  -1.3910000   0.2560000  -1.4430000  -3.4240000
  -0.4340000  -1.7290000  -4.2190000   1.0590000  -0.8740000  -3.8920000
   0.8360000  -2.7810000  -2.9570000   1.0260000  -2.9520000  -1.7570000
   1.0330000  -3.7120000  -3.8560000   1.3850000  -4.6010000  -3.5290000
   0.7660000  -3.6540000  -5.2630000  -0.2610000  -3.8400000  -5.5760000
   1.0760000  -2.6630000  -5.5970000   1.6460000  -4.7070000  -5.9320000
   2.8800000  -4.5960000  -5.8110000   1.0820000  -5.6950000  -6.5700000
   0.0970000  -5.6780000  -6.7950000   1.7730000  -6.9090000  -6.9960000
   2.8180000  -6.6780000  -6.7890000   1.5990000  -7.2030000  -8.4940000
   0.3910000  -7.1630000  -8.9290000   1.4320000  -8.0580000  -6.1410000
   1.9810000  -8.9400000  -6.4730000   0.3680000  -8.2380000  -6.2960000
   1.6460000  -8.0540000  -4.6050000   2.9440000  -8.1300000  -4.0790000
   3.6990000  -8.4200000  -4.7950000   0.6000000  -7.5230000  -3.8440000
  -0.3720000  -7.4090000  -4.3000000   3.2120000  -7.8300000  -2.7170000
   4.2100000  -7.9560000  -2.3220000   0.7730000  -7.2800000  -2.4900000
  -0.1220000  -7.2790000  -1.8850000   2.0550000  -7.3930000  -1.9220000
   2.2030000  -7.3190000  -0.8550000   2.5530000  -7.4000000  -9.1950000
  -5.6890000  -7.1780000   8.6380000  -4.4300000  -6.6920000   9.0270000
  -3.7540000  -5.8100000   8.2220000  -2.8150000  -4.9870000   8.8240000
  -2.1030000  -4.0730000   8.0770000  -2.3140000  -3.9710000   6.7080000
  -1.5370000  -2.9750000   5.8880000  -1.7530000  -2.8800000   4.7010000
  -0.5030000  -2.1320000   6.5240000  -0.8610000  -1.1080000   7.3930000
   0.1220000  -0.3180000   7.9700000   1.4650000  -0.5570000   7.6870000
   1.8230000  -1.5710000   6.8070000   0.8350000  -2.3570000   6.2100000
  -3.2560000  -4.8080000   6.0920000  -3.4660000  -4.7170000   4.7490000
  -3.9700000  -5.7190000   6.8600000  -6.2856000  -7.4083000   9.5330000
  -6.2071000  -6.4153000   8.0382000  -5.5603000  -8.0910000   8.0382000
  -2.6365000  -5.0639000   9.9067000  -1.3645000  -3.4216000   8.5673000
  -1.9211000  -0.9247000   7.6224000  -0.1590000   0.4982000   8.6518000
   2.2437000   0.0584000   8.1612000   2.8837000  -1.7545000   6.5808000
   1.1115000  -3.1478000   5.4972000  -4.1301000  -5.3061000   4.3108000
  -4.7131000  -6.3731000   6.3804000
