
  550  0.0000000e+00
  -4.1300000   0.8940000 -11.2650000  -4.8610000   0.8170000 -10.5720000
  -3.6430000   0.0100000 -11.2930000  -4.5460000   1.0270000 -12.1750000
  -3.0930000   1.8370000 -10.9510000  -2.5310000   2.0170000 -11.8680000
  -2.2390000   1.2730000  -9.8130000  -2.8090000   0.9210000  -8.7970000
  -3.6840000   3.1760000 -10.5750000  -4.5360000   3.0900000  -9.9000000
  -4.1990000   3.6030000 -11.4350000  -2.7630000   4.0840000  -9.9910000
  -3.1150000   4.9290000  -9.7020000  -0.8940000   1.1550000 -10.0580000
  -0.5540000   1.4660000 -10.9570000   0.1940000   0.6640000  -9.0710000
  -0.2090000  -0.2700000  -8.6790000   0.4720000   1.7050000  -7.9540000
   0.5880000   1.4890000  -6.6880000   1.4240000   0.4200000  -9.9260000
   1.6380000   1.3030000 -10.5280000   1.2090000  -0.3220000 -10.6950000
   2.7290000   0.1160000  -9.1680000   2.3490000  -0.4870000  -8.3430000
   3.2510000   0.9900000  -8.7790000   3.7060000  -0.7710000  -9.9320000
   3.3820000  -1.8120000  -9.9320000   3.7010000  -0.3280000 -10.9280000
   5.1280000  -0.6520000  -9.4210000   5.4410000   0.3820000  -9.2750000
   5.1190000  -1.0220000  -8.3950000   6.0420000  -1.3350000 -10.3490000
   5.8170000  -2.3060000 -10.5130000   5.8820000  -0.9640000 -11.2740000
   7.0330000  -1.2040000 -10.2090000   0.4250000   2.9690000  -8.3360000
   0.2500000   3.0790000  -9.3240000   0.3980000   4.1500000  -7.4320000
   1.2800000   4.1010000  -6.7940000  -0.7900000   4.1790000  -6.5190000
  -0.6470000   4.4520000  -5.3560000   0.4220000   5.4560000  -8.3060000
  -0.2120000   5.2800000  -9.1750000   0.1060000   6.3200000  -7.7220000
   1.8550000   5.9270000  -8.6530000   1.8430000   6.8560000  -9.2220000
   2.3930000   6.0720000  -7.7150000   2.5560000   4.8330000  -9.5080000
   1.9490000   4.2360000 -10.3870000   3.7950000   4.7450000  -9.3300000
  -1.9930000   3.9120000  -6.9830000  -2.1440000   3.6690000  -7.9520000
  -3.1450000   3.8450000  -6.0890000  -3.2810000   4.8110000  -5.6030000
  -3.0610000   2.8360000  -4.9690000  -3.3950000   3.1940000  -3.8020000
  -4.3880000   3.4230000  -6.9890000  -4.4680000   4.2090000  -7.7390000
  -4.1410000   2.4780000  -7.4730000  -5.7910000   3.2040000  -6.3170000
  -6.4670000   2.6280000  -6.9490000  -5.6200000   2.5280000  -5.4790000
  -6.4470000   4.5290000  -5.7960000  -6.1090000   5.6500000  -6.2820000
  -7.4110000   4.4430000  -4.9650000  -2.6670000   1.6080000  -5.3070000
  -2.6270000   1.4390000  -6.3020000  -2.2070000   0.6120000  -4.2860000
  -3.0150000   0.2590000  -3.6440000  -1.2070000   1.1070000  -3.2810000
  -1.4480000   0.8950000  -2.0920000  -1.7720000  -0.6070000  -5.0080000
  -1.4550000  -1.2990000  -4.2290000  -0.8930000  -0.5480000  -5.6500000
  -2.8080000  -1.3730000  -5.9110000  -3.0880000  -0.6760000  -6.7010000
  -2.2590000  -2.6800000  -6.4520000  -1.6840000  -2.4600000  -7.3520000
  -3.0890000  -3.3310000  -6.7260000  -1.7670000  -3.2430000  -5.6590000
  -4.1290000  -1.5100000  -5.2070000  -4.8770000  -2.0790000  -5.7580000
  -3.9210000  -1.8920000  -4.2070000  -4.6080000  -0.5370000  -5.0910000
  -0.0890000   1.6480000  -3.7050000  -0.0320000   1.8240000  -4.6980000
   0.9350000   2.1970000  -2.8000000   1.2420000   1.4610000  -2.0570000
   0.4370000   3.4040000  -2.0310000   0.6900000   3.4790000  -0.8220000
   2.1540000   2.6040000  -3.6430000   1.8770000   3.0280000  -4.6090000
   3.0260000   1.4000000  -4.0690000   3.8250000   1.2920000  -3.3370000
   2.3680000   0.5350000  -3.9880000   3.0210000   3.6920000  -3.0200000
   3.9260000   3.7500000  -3.6250000   3.3090000   3.4270000  -2.0030000
   2.5790000   4.6790000  -3.1550000   3.7200000   1.3740000  -5.4590000
   3.1380000   1.5210000  -6.3690000   4.3500000   0.4910000  -5.5670000
   4.4450000   2.1870000  -5.4200000  -0.3470000   4.2770000  -2.6420000
  -0.5850000   4.1310000  -3.6120000  -1.0100000   5.3540000  -1.9290000
  -0.2840000   5.9680000  -1.3950000  -2.0120000   4.7980000  -0.8740000
  -1.8910000   5.2780000   0.2480000  -1.7490000   6.2510000  -2.9920000
  -0.9600000   6.6700000  -3.6150000  -2.4320000   5.7140000  -3.6510000
  -2.5290000   7.4450000  -2.4310000  -3.1150000   7.1520000  -1.5600000
  -1.8340000   8.2050000  -2.0740000  -3.5520000   8.1050000  -3.4580000
  -2.9780000   8.2930000  -4.3660000  -3.7640000   9.1100000  -3.0920000
  -4.8050000   7.2980000  -3.7390000  -4.5860000   6.2490000  -3.9410000
  -5.3470000   7.3280000  -2.7940000  -5.6490000   7.9200000  -4.8010000
  -6.4410000   7.3650000  -5.0910000  -5.1350000   8.2110000  -5.6200000
  -6.0510000   8.7470000  -4.3830000  -2.8950000   3.8460000  -1.1870000
  -2.7780000   3.2670000  -2.0060000  -3.6500000   3.2970000  -0.0770000
  -4.1130000   4.1220000   0.4650000  -2.8180000   2.4530000   0.9000000
  -3.1920000   2.4200000   2.0840000  -4.7600000   2.3860000  -0.6630000
  -4.3200000   1.4850000  -1.0900000  -5.3510000   2.8480000  -1.4530000
  -5.8900000   1.8360000   0.3580000  -6.6820000   1.3320000  -0.1960000
  -5.4580000   1.1670000   1.1030000  -6.5740000   3.0750000   1.0520000
  -5.8460000   3.7860000   1.4430000  -7.2210000   3.6170000   0.3620000
  -7.5240000   2.5780000   2.1210000  -6.8960000   2.0240000   2.8190000
  -8.2590000   1.9360000   1.6360000  -8.1050000   3.7000000   2.9440000
  -8.1590000   4.5960000   2.4810000  -9.0580000   3.5770000   3.2550000
  -7.4640000   3.9090000   3.6960000  -1.7080000   1.8270000   0.5150000
  -1.3670000   1.9680000  -0.4250000  -0.7420000   1.2500000   1.3290000
  -1.0640000   0.3240000   1.8050000   0.1080000   1.0250000   0.6860000
  -0.2830000   2.2710000   2.3950000  -0.2400000   2.0080000   3.6120000
  -0.0680000   3.5250000   2.0060000   0.1950000   3.6240000   1.0360000
   0.3620000   4.6350000   2.9300000   1.1360000   4.2230000   3.5770000
  -0.7050000   5.1770000   3.8290000  -0.4240000   5.5810000   4.9510000
   1.0800000   5.7850000   2.1440000   1.2890000   6.6700000   2.7450000
   0.4600000   6.0400000   1.2840000   2.4160000   5.2860000   1.5160000
   3.1560000   5.2580000   2.3160000   2.3750000   4.2650000   1.1370000
   2.7990000   6.3080000   0.3850000   2.1190000   6.1520000  -0.4530000
   2.8450000   7.3250000   0.7740000   4.2090000   5.8100000  -0.1120000
   4.0510000   4.8180000  -0.5350000   4.8110000   5.8550000   0.7950000
   4.8030000   6.7060000  -1.0550000   4.1450000   7.0400000  -1.7450000
   5.5330000   6.2260000  -1.5620000   5.1490000   7.5260000  -0.5780000
  -1.9520000   5.1390000   3.4420000  -2.1600000   5.0290000   2.4600000
  -3.1400000   5.4270000   4.2580000  -3.1080000   6.3940000   4.7600000
  -3.2870000   4.3040000   5.3530000  -3.3330000   4.6510000   6.5250000
  -4.5040000   5.4740000   3.4840000  -5.2330000   5.9300000   4.1540000
  -4.8460000   4.5140000   3.0980000  -4.4990000   6.3630000   2.2150000
  -3.9090000   7.2720000   2.3380000  -3.9870000   5.7640000   1.4620000
  -5.8800000   6.7550000   1.6810000  -6.8930000   5.9620000   1.7750000
  -5.9930000   7.8370000   1.0790000  -3.1680000   3.0660000   4.9010000
  -3.0710000   2.9830000   3.8990000  -3.2070000   1.8530000   5.7570000
  -4.1730000   1.8950000   6.2610000  -2.1160000   1.9200000   6.7810000
  -2.3620000   1.7090000   7.9700000  -3.0510000   0.5810000   4.8080000
  -2.2740000   0.7410000   4.0610000  -2.7420000  -0.3000000   5.3710000
  -4.3050000   0.1640000   3.9760000  -4.7410000   1.0840000   3.5850000
  -4.0500000  -0.8070000   2.8620000  -3.3440000  -1.5880000   3.1440000
  -4.9890000  -1.2420000   2.5190000  -3.6890000  -0.2110000   2.0240000
  -5.3190000  -0.5780000   4.9380000  -6.2170000  -0.8760000   4.3970000
  -4.8550000  -1.5130000   5.2530000  -5.6280000   0.1500000   5.6880000
  -0.8640000   2.1410000   6.3850000  -0.6180000   2.0450000   5.4100000
   0.2830000   2.2930000   7.3240000   0.3190000   1.3040000   7.7810000
  -0.1050000   3.4270000   8.3660000   0.1310000   3.3100000   9.5480000
   1.6110000   2.3920000   6.5780000   1.5520000   3.0510000   5.7120000
   2.1190000   1.0020000   6.1340000   1.3010000   0.4720000   5.6460000
   2.4410000   0.3740000   6.9660000   2.5870000   2.9950000   7.5510000
   2.3650000   4.0210000   7.8460000   3.5670000   3.0650000   7.0780000
   2.7430000   2.3960000   8.4480000   3.2620000   1.1890000   5.1230000
   2.9960000   1.7370000   4.2190000   4.1600000   1.6750000   5.5040000
   3.5480000   0.1810000   4.8200000  -0.4780000   4.6320000   7.9500000
  -0.4740000   4.8360000   6.9600000  -0.7160000   5.8100000   8.8650000
   0.1420000   5.8330000   9.5360000  -1.9290000   5.5870000   9.7760000
  -1.9950000   6.1080000  10.8990000  -0.9560000   7.1340000   8.2100000
  -1.7380000   6.9270000   7.4800000  -1.3370000   7.9080000   8.8760000
   0.3690000   7.6040000   7.4970000   1.0780000   8.0970000   8.1620000
   0.8910000   6.7190000   7.1320000  -0.0770000   8.4940000   6.3260000
  -0.9810000   8.1480000   5.8250000  -0.3210000   9.4440000   6.8020000
   0.9490000   8.7250000   5.2190000   0.9240000   7.7860000   4.6670000
   1.9310000   8.9150000   5.6520000   0.6400000   9.8800000   4.3220000
   1.1310000  10.7120000   4.6180000  -0.3510000  10.0380000   4.2140000
   1.1130000   9.6330000   3.4640000  -2.8870000   4.7930000   9.3510000
  -2.9670000   4.7030000   8.3480000  -4.1000000   4.3410000  10.0850000
  -4.4480000   5.0610000  10.8250000  -3.9470000   3.0930000  10.9580000
  -4.9360000   2.7180000  11.6170000  -5.2130000   4.0980000   9.0210000
  -4.8810000   3.5120000   8.1640000  -6.0690000   3.6180000   9.4970000
  -5.7250000   5.4810000   8.5120000  -5.8990000   6.0740000   9.4100000
  -4.8990000   6.0620000   8.1020000  -6.9820000   5.4980000   7.6910000
  -7.9640000   4.7730000   7.9160000  -7.0600000   6.2290000   6.6990000
  -2.7300000   2.5520000  11.0810000  -1.9880000   2.9370000  10.5140000
  -2.4530000   1.3940000  11.9480000  -1.4030000   1.4170000  12.2400000
  -3.1650000   1.4840000  12.7680000  -2.6860000   0.0140000  11.2950000
  -2.3710000  -0.9590000  11.9350000  -3.2300000   0.0160000  10.0380000
  -3.2700000   0.9270000   9.6030000  -3.8160000  -1.1120000   9.2630000
  -4.3630000  -1.7560000   9.9520000  -2.7920000  -2.0240000   8.6450000
  -3.2180000  -3.0350000   8.1170000  -4.7100000  -0.6050000   8.1510000
  -4.0980000  -0.0480000   7.4410000  -5.1650000  -1.4530000   7.6390000
  -5.9420000   0.1960000   8.6160000  -5.6920000   1.1930000   8.9790000
  -6.5450000   0.2550000   7.7100000  -6.9200000  -0.4700000   9.6830000
  -6.4060000  -0.8600000  10.5610000  -7.2960000  -1.4500000   9.3900000
  -8.0240000   0.5010000  10.2040000  -8.4270000   0.1080000  11.1380000
  -7.4880000   1.3850000  10.5490000  -9.0900000   0.7640000   9.2330000
  -8.8770000   1.3740000   8.4570000  -9.4990000  -0.0970000   8.8990000
  -9.9280000   1.1020000   9.6840000  -1.5350000  -1.7470000   8.6980000
  -1.3420000  -0.8650000   9.1500000  -0.4070000  -2.4370000   8.0830000
  -0.5640000  -3.4980000   8.2750000   0.8410000  -2.0550000   9.0080000
   0.8350000  -0.8930000   9.5220000  -0.1070000  -2.1690000   6.5920000
  -0.2160000  -1.1270000   6.2880000   0.9320000  -2.4610000   6.4400000
  -0.9190000  -2.9650000   5.5960000  -1.9980000  -2.8530000   5.7000000
  -0.4530000  -2.5500000   4.1780000  -0.4930000  -1.4660000   4.0750000
  -1.0880000  -3.0380000   3.4390000   0.5620000  -2.9300000   4.0670000
  -0.5300000  -4.4290000   5.7090000  -0.8550000  -4.6500000   6.7250000
   0.5400000  -4.5770000   5.5620000  -1.1390000  -4.9720000   4.9860000
   1.8650000  -2.8730000   9.1390000   3.2200000  -2.5250000   9.5840000
   3.1570000  -1.8060000  10.4010000   4.0510000  -1.8160000   8.4720000
   3.7670000  -2.0390000   7.2580000   3.7830000  -3.9210000   9.8760000
   4.8720000  -3.9110000   9.9000000   3.4930000  -4.2810000  10.8630000
   3.2130000  -4.8520000   8.8480000   3.7850000  -4.7670000   7.9240000
   3.0850000  -5.8820000   9.1820000   1.7960000  -4.3380000   8.9050000
   1.2300000  -4.8540000   9.6800000   1.3120000  -4.5310000   7.9470000
   5.0520000  -0.9330000   8.7270000   5.9010000  -0.3620000   7.6510000
   5.3000000   0.4020000   7.1570000   6.4840000  -1.4200000   6.7550000
   6.8700000  -2.5100000   7.2140000   6.9370000   0.4340000   8.4320000
   6.5230000   1.4210000   8.6390000   7.8900000   0.5590000   7.9180000
   7.0300000  -0.2270000   9.7530000   7.7500000  -1.0460000   9.7480000
   7.4600000   0.4030000  10.5320000   5.5880000  -0.7160000  10.0140000
   5.6720000  -1.7120000  10.4490000   4.8980000  -0.0160000  10.4850000
   6.4420000  -1.2760000   5.4430000   5.9970000  -0.4110000   5.1720000
   6.6440000  -2.2920000   4.3630000   7.2870000  -3.0970000   4.7200000
   7.0890000  -1.7150000   3.0530000   6.6940000  -0.5980000   2.7270000
   5.2480000  -3.0070000   4.2170000   5.0500000  -3.5240000   5.1570000
   4.5350000  -2.1910000   4.1030000   5.0380000  -3.9650000   3.0100000
   5.2710000  -3.5530000   2.0290000   5.7310000  -4.8010000   3.1090000
   3.3630000  -4.6920000   2.8060000   3.4650000  -5.6710000   4.2990000
   4.2710000  -6.4040000   4.2580000   2.5310000  -6.2120000   4.4490000
   3.4900000  -5.0360000   5.1850000   7.9020000  -2.2950000   2.1450000
   8.1020000  -3.2810000   2.2330000   8.3940000  -1.5480000   0.9410000
   8.6050000  -0.5360000   1.2860000   7.3140000  -1.4080000  -0.2170000
   6.3660000  -2.1870000  -0.2430000   9.6700000  -2.0530000   0.3180000
   9.8920000  -1.5150000  -0.6030000   9.4120000  -3.4020000  -0.0860000
   9.6380000  -3.8910000   0.7080000  10.8870000  -2.0530000   1.2850000
  10.6830000  -2.7070000   2.1330000  11.0120000  -1.0360000   1.6560000
  11.7990000  -2.1250000   0.6930000   7.6190000  -0.4790000  -1.1350000
   8.2730000   0.2480000  -0.8830000   6.7600000  -0.1820000  -2.3470000
   5.7840000  -0.0100000  -1.8930000   6.6000000  -1.4460000  -3.2300000
   5.6670000  -1.6660000  -3.9450000   7.3030000   1.0750000  -3.0610000
   8.3770000   0.9300000  -3.1800000   6.7460000   1.1500000  -3.9950000
   7.1060000   2.4270000  -2.3560000   6.6000000   2.3610000  -1.1990000
   7.4440000   3.4750000  -2.9380000   7.6760000  -2.2800000  -3.3030000
   8.5160000  -2.0760000  -2.7810000   7.6870000  -3.6750000  -3.8120000
   7.2460000  -3.7680000  -4.8050000   6.8170000  -4.7390000  -2.9790000
   6.0510000  -5.5360000  -3.5660000   9.2210000  -4.1070000  -3.7320000
   9.7030000  -3.7690000  -2.8150000   9.8090000  -3.6270000  -4.5150000
   9.5880000  -5.6100000  -3.7190000  10.6720000  -5.6520000  -3.6040000
   9.1750000  -6.0370000  -2.8050000   9.1820000  -6.4050000  -4.9520000
   9.2490000  -7.6580000  -4.8590000   8.8130000  -5.7660000  -5.9790000
   6.9520000  -4.8120000  -1.6450000   7.6910000  -4.2700000  -1.2210000
   6.1670000  -5.7210000  -0.8520000   6.2220000  -6.7390000  -1.2380000
   4.7080000  -5.2930000  -0.7610000   3.8310000  -6.1440000  -0.5470000
   6.7270000  -5.8240000   0.5590000   6.0180000  -6.1600000   1.3150000
   6.9870000  -4.7840000   0.7580000   8.0530000  -6.6330000   0.6960000
   7.8960000  -7.7050000   0.8150000   8.6600000  -6.4590000  -0.1930000
   8.6700000  -6.1630000   1.9650000   9.3000000  -5.0430000   1.9590000
   8.4990000  -6.7390000   3.0660000   4.3750000  -4.0100000  -1.0020000
   5.1120000  -3.3230000  -0.9330000   3.0740000  -3.4220000  -1.0350000
   2.4750000  -3.6610000  -0.1560000   2.2850000  -4.0780000  -2.2250000
   1.1650000  -4.5420000  -2.0160000   3.1450000  -1.8730000  -1.1470000
   2.2130000  -1.6630000  -1.6710000   3.9120000  -1.6260000  -1.8820000
   3.2160000  -1.1080000   0.2010000   4.2180000  -1.3040000   0.5840000
   2.4860000  -1.5190000   0.8970000   2.9010000   0.6760000   0.0030000
   3.8290000   1.1660000   1.4640000   3.3320000   0.6810000   2.3040000
   3.7950000   2.2480000   1.5950000   4.8540000   0.8180000   1.3320000
   2.9210000  -4.0010000  -3.4170000   3.7720000  -3.4690000  -3.5270000
   2.1680000  -4.5360000  -4.5750000   1.1290000  -4.2050000  -4.6110000
   2.1050000  -6.0930000  -4.4710000   1.1580000  -6.7250000  -4.8570000
   2.8010000  -4.0360000  -5.9510000   3.7790000  -4.5090000  -6.0420000
   2.9300000  -2.4950000  -6.0790000   3.3900000  -2.2610000  -7.0390000
   3.5870000  -2.1860000  -5.2660000   1.9740000  -4.4800000  -7.1300000
   0.9230000  -4.2070000  -7.0290000   2.1530000  -3.9200000  -8.0480000
   2.0670000  -5.5540000  -7.2860000   1.6490000  -1.6210000  -5.8330000
   1.2180000  -1.7560000  -4.8410000   0.8230000  -1.8760000  -6.4970000
   1.8170000  -0.5670000  -6.0550000   2.9560000  -6.7250000  -3.6950000
   3.6020000  -6.0910000  -3.2460000   2.7870000  -8.1650000  -3.2700000
   2.4510000  -8.6500000  -4.1870000   1.6470000  -8.3840000  -2.2950000
   0.9150000  -9.3790000  -2.3850000   4.1340000  -8.6840000  -2.8020000
   3.9370000  -9.7140000  -2.5040000   4.4570000  -8.1310000  -1.9210000
   5.2940000  -8.5600000  -3.9240000   5.1560000  -7.7520000  -4.6430000
   6.2380000  -8.4170000  -3.3970000   5.4610000  -9.8910000  -4.6520000
   4.5680000 -10.3030000  -5.4050000   6.3350000 -10.6650000  -4.2320000
   1.3770000  -7.5250000  -1.3230000   1.9930000  -6.7390000  -1.1750000
   0.2490000  -7.6620000  -0.3390000   0.0910000  -8.7200000  -0.1320000
  -1.1750000  -7.4130000  -0.9540000  -2.2010000  -7.3020000  -0.2720000
   0.4470000  -7.1170000   1.0810000  -0.4640000  -7.2830000   1.6550000
   1.5950000  -7.8240000   1.8330000   2.5990000  -7.5220000   1.5360000
   1.5850000  -8.8800000   1.5620000   1.4820000  -7.6680000   2.9060000
   0.5230000  -5.5690000   1.1120000  -0.3560000  -5.1130000   0.6570000
   1.3440000  -5.3000000   0.4460000   0.8470000  -5.1810000   2.0770000
  -1.2260000  -7.1480000  -2.2640000  -0.3450000  -6.9340000  -2.7070000
  -2.3480000  -6.6100000  -3.0460000  -3.2090000  -6.8430000  -2.4190000
  -2.5470000  -7.2870000  -4.4130000  -3.6740000  -7.3480000  -4.8900000
  -2.2080000  -5.1520000  -3.2210000  -2.8650000  -4.7990000  -4.0150000
  -0.9680000  -4.8560000  -3.6770000  -0.4160000  -4.8630000  -2.8920000
  -2.4810000  -4.2750000  -2.0470000  -1.9750000  -4.6660000  -1.1640000
  -2.1230000  -3.2800000  -2.3120000  -3.5570000  -4.2720000  -1.8730000
  -1.5020000  -7.9640000  -4.9470000  -0.5830000  -7.7920000  -4.5650000
  -1.5530000  -8.7620000  -6.1940000  -2.5890000  -9.0500000  -6.3710000
  -0.8070000 -10.1130000  -5.9980000  -1.5590000 -11.0750000  -5.5300000
  -0.9750000  -7.9690000  -7.3680000  -0.0510000  -7.4950000  -7.0390000
  -0.7760000  -8.6080000  -8.2280000  -1.8870000  -6.8230000  -7.7850000
  -2.8560000  -7.2440000  -8.0540000  -2.1320000  -6.0780000  -7.0290000
  -1.2880000  -6.1490000  -9.0160000  -1.1350000  -6.9050000  -9.7870000
  -0.3820000  -5.6080000  -8.7410000  -2.2330000  -5.0970000  -9.4200000
  -3.2120000  -5.1470000  -9.1800000  -1.9610000  -3.9830000 -10.0690000
  -0.7450000  -3.7360000 -10.5360000  -0.2060000  -4.5570000 -10.7700000
  -0.6740000  -2.9580000 -11.1760000  -2.8210000  -3.1080000 -10.4770000
  -3.7460000  -3.1330000 -10.0730000  -2.5670000  -2.5530000 -11.2820000
   0.4740000 -10.1550000  -6.1410000  -9.8250000   2.3580000  -1.1220000
 -10.3010000   1.1350000  -1.7460000  -9.3450000   0.1750000  -1.9630000
  -9.4580000  -1.0230000  -1.3110000  -8.4640000  -2.0550000  -1.4760000
  -7.4210000  -1.7920000  -2.3750000  -6.4310000  -2.8670000  -2.5620000
  -6.5280000  -3.5490000  -3.6360000  -5.2300000  -3.0410000  -1.7420000
  -5.4140000  -3.5520000  -0.4510000  -4.2990000  -3.6530000   0.4100000
  -3.0940000  -3.1670000   0.0120000  -2.9020000  -2.6010000  -1.2370000
  -3.9870000  -2.5020000  -2.1320000  -7.3190000  -0.5600000  -3.0090000
  -6.2340000  -0.3560000  -3.8780000  -8.2830000   0.4490000  -2.8280000
  -9.8664203   2.2515777  -0.0279439  -8.7871456   2.5483377  -1.4328535
 -10.4611165   3.1998586  -1.4328535 -10.3198636  -1.2014967  -0.6512045
  -8.5216174  -3.0038207  -0.9224482  -6.4113762  -3.8697165  -0.1129218
  -4.4055762  -4.1231565   1.3987337  -2.2422210  -3.2252184   0.7056016
  -1.9083792  -2.2305901  -1.5294280  -3.8664999  -2.0157509  -3.1113067
  -6.1308689   0.5101649  -4.3462118  -8.2033826   1.4154595  -3.3472466
