
  400  0.0000000e+00
   9.7870000   2.2340000   3.3770000  10.2820000   1.7920000   2.6160000
  10.4030000   2.6520000   4.0600000   9.2900000   2.9380000   2.8500000
   8.8240000   1.3580000   4.0190000   9.3100000   0.4090000   4.2490000
   7.7550000   1.0650000   2.9880000   7.1990000   2.0200000   2.3520000
   8.1500000   2.0240000   5.2550000   7.1170000   1.6870000   5.3360000
   8.7200000   1.7200000   6.1330000   8.1080000   3.5490000   5.4040000
   9.1360000   3.8730000   5.5700000   7.6760000   4.0010000   4.5120000
   7.2300000   3.9090000   6.6630000   7.4610000   3.1310000   7.3890000
   6.1520000   3.8170000   6.5300000   7.6920000   5.1840000   7.2290000
   8.5170000   5.5630000   6.7860000   7.1980000   5.7420000   8.3330000
   6.1620000   5.3730000   8.9660000   5.7220000   4.4850000   8.7690000
   5.8880000   5.9450000   9.7510000   7.7230000   6.9040000   8.6700000
   8.4190000   7.2990000   8.0540000   7.2860000   7.4070000   9.4300000
   7.3450000  -0.1300000   2.8050000   7.8890000  -0.8470000   3.2630000
   6.3650000  -0.5030000   1.7680000   6.7650000  -0.3470000   0.7660000
   5.4520000   0.0900000   1.8250000   5.7820000  -1.9380000   1.8990000
   6.2610000  -2.7270000   2.7130000   4.8770000  -2.3730000   1.0600000
   4.4660000  -1.7900000   0.3440000   4.3470000  -3.7370000   1.0610000
   3.6300000  -3.8540000   1.8740000   5.1250000  -4.4970000   1.1380000
   3.5500000  -4.0900000  -0.1850000   3.2320000  -3.2970000  -1.0270000
   3.2110000  -5.4380000  -0.3010000   3.5340000  -6.1610000   0.3260000
   2.3880000  -5.8350000  -1.4930000   2.9910000  -5.6300000  -2.3780000
   1.0290000  -5.1200000  -1.6010000   0.4970000  -4.7900000  -0.5710000
   2.1390000  -7.3150000  -1.5580000   1.9710000  -7.4720000  -2.6230000
   1.2650000  -7.6410000  -0.9940000   3.2120000  -8.2930000  -1.0910000
   4.2720000  -8.2880000  -1.7420000   2.9410000  -8.9730000  -0.0750000
   0.5390000  -4.8640000  -2.8140000   0.9970000  -5.1190000  -3.6780000
  -0.7630000  -4.3050000  -3.1490000  -0.9260000  -3.5180000  -2.4120000
  -0.6730000  -4.0760000  -4.2110000  -1.9620000  -5.2940000  -3.0580000
  -2.1400000  -6.0470000  -2.1060000  -2.8560000  -5.3790000  -4.0960000
  -2.7400000  -4.7000000  -4.8350000  -4.2200000  -5.9510000  -4.0320000
  -4.6620000  -5.8340000  -5.0220000  -4.1710000  -7.0240000  -3.8520000
  -5.1480000  -5.3300000  -2.9890000  -4.8530000  -4.2710000  -2.3830000
  -6.1730000  -6.1140000  -2.5980000  -6.0820000  -7.0570000  -2.9480000
  -7.1300000  -5.8470000  -1.5350000  -7.2460000  -4.7930000  -1.2810000
  -6.4710000  -6.3290000  -0.2960000  -5.9030000  -7.4220000  -0.3210000
  -8.5060000  -6.5370000  -1.7370000  -9.1140000  -6.4200000  -0.8390000
  -8.2690000  -7.5370000  -2.0990000  -9.4160000  -5.9380000  -2.8610000
 -10.3780000  -6.4500000  -2.8690000  -8.9680000  -5.9430000  -3.8550000
  -9.7950000  -4.4860000  -2.6140000 -10.4220000  -4.3780000  -1.7290000
  -8.8730000  -3.9100000  -2.5330000 -10.5080000  -3.7990000  -3.7970000
 -10.7920000  -2.7950000  -3.4800000  -9.7290000  -3.6830000  -4.5510000
 -11.7290000  -4.5690000  -4.2650000 -11.4530000  -5.4480000  -4.6780000
 -12.1900000  -3.9450000  -4.9130000 -12.3930000  -4.8040000  -3.5420000
  -6.5680000  -5.5840000   0.7740000  -7.1930000  -4.7940000   0.7070000
  -6.1090000  -5.9120000   2.1550000  -6.5550000  -6.8670000   2.4330000
  -5.0570000  -6.1920000   2.1310000  -6.4060000  -4.9060000   3.2290000
  -7.3270000  -4.1170000   3.0540000  -5.7370000  -5.0420000   4.3610000
  -4.9600000  -5.6800000   4.2670000  -5.6230000  -4.0140000   5.3290000
  -6.5870000  -3.9930000   5.8390000  -4.8930000  -4.3320000   6.0730000
  -5.2210000  -2.6790000   4.8090000  -4.5260000  -2.5430000   3.8260000
  -5.4770000  -1.6220000   5.5620000  -5.8700000  -1.8380000   6.4680000
  -4.9050000  -0.2450000   5.3520000  -5.3550000   0.0160000   4.3940000
  -5.0360000   0.3930000   6.2250000  -3.3690000  -0.1880000   5.3170000
  -2.5880000  -0.6090000   6.1180000  -2.9420000   0.5100000   4.3050000
  -3.6760000   0.8490000   3.6990000  -1.5730000   0.9680000   4.0470000
  -0.9470000   0.1200000   3.7670000  -1.6200000   1.7430000   3.2820000
  -0.7760000   1.6060000   5.1480000  -1.2410000   2.4830000   5.8870000
   0.4800000   1.1710000   5.2650000   0.7630000   0.4330000   4.6370000
   1.3790000   1.4930000   6.3610000   0.7350000   1.8330000   7.1730000
   2.3000000   2.6930000   5.9930000   3.5170000   2.5780000   6.1290000
   2.0930000   0.2530000   7.0420000   2.8510000  -0.2060000   6.4070000
   2.6430000   0.4650000   7.9580000   1.1420000  -0.8600000   7.3610000
   0.7430000  -1.1440000   6.3870000   1.7800000  -1.9500000   8.2410000
   2.5910000  -2.4300000   7.6920000   1.1300000  -2.8060000   8.4220000
   2.1210000  -1.4830000   9.1650000  -0.0200000  -0.4320000   8.2980000
  -0.7520000   0.1610000   7.7500000   0.3170000   0.2310000   9.0950000
  -0.4810000  -1.3470000   8.6700000   1.7240000   3.7180000   5.2990000
   0.7140000   3.7350000   5.2980000   2.4230000   4.8970000   4.7270000
   3.0150000   5.2950000   5.5510000   1.6050000   5.6170000   4.6740000
   3.2200000   4.6600000   3.4080000   3.7050000   5.5760000   2.7750000
   3.3390000   3.4060000   2.9190000   2.8770000   2.6260000   3.3650000
   3.8870000   3.1490000   1.5590000   4.2140000   2.1120000   1.4750000
   4.7460000   3.7850000   1.3450000   2.8210000   3.3760000   0.4160000
   2.1020000   2.5130000  -0.0370000   2.8550000   4.5660000  -0.1440000
   3.6290000   5.1190000   0.1950000   2.0900000   5.0450000  -1.2950000
   2.1950000   6.1130000  -1.4840000   1.0190000   4.9230000  -1.1340000
   2.2840000   4.1710000  -2.5400000   3.2600000   4.2060000  -3.2500000
   1.2800000   3.2930000  -2.7850000   0.4720000   3.3250000  -2.1810000
   1.0210000   2.4780000  -3.9550000   1.8680000   2.2810000  -4.6130000
   0.7570000   1.4580000  -3.6790000  -0.1040000   3.0860000  -4.8040000
  -0.0610000   4.2710000  -5.0640000  -1.0910000   2.3080000  -5.2240000
  -1.0600000   1.3140000  -5.0490000  -2.1250000   2.7570000  -6.1700000
  -1.5510000   3.2400000  -6.9610000  -3.0750000   3.9080000  -5.6730000
  -3.6400000   4.6180000  -6.4260000  -3.0090000   1.5830000  -6.7300000
  -3.3670000   0.9650000  -5.9070000  -3.8110000   1.9340000  -7.3790000
  -2.1760000   0.7430000  -7.7520000  -1.3200000   0.3470000  -7.2060000
  -1.8630000   1.3690000  -8.5880000  -2.9680000  -0.4640000  -8.3550000
  -3.9170000  -0.0460000  -8.6920000  -3.1570000  -1.1140000  -7.5010000
  -2.1520000  -1.1330000  -9.3940000  -1.3510000  -1.7450000  -8.9800000
  -1.6710000  -0.3240000  -9.9440000  -2.8940000  -1.9040000 -10.3630000
  -2.2340000  -2.2090000 -11.0650000  -3.4750000  -1.3140000 -10.9410000
  -3.4720000  -2.6350000  -9.9730000  -3.1340000   4.1560000  -4.3750000
  -2.6150000   3.5510000  -3.7540000  -3.8130000   5.2900000  -3.8070000
  -3.3020000   6.1550000  -4.2280000  -4.8880000   5.1930000  -3.9630000
  -3.5830000   5.3950000  -2.2510000  -3.1370000   4.4250000  -1.6300000
  -3.9330000   6.5690000  -1.7250000  -4.1510000   7.2960000  -2.3910000
  -4.0640000   6.8630000  -0.3190000  -3.0520000   7.0080000   0.0610000
  -4.7270000   5.6980000   0.4190000  -5.9030000   5.4030000   0.1710000
  -4.8170000   8.1780000  -0.1540000  -5.5970000   8.0820000  -0.9090000
  -3.8700000   9.3630000  -0.7040000  -2.9880000   9.6230000  -0.1190000
  -3.6260000   9.1070000  -1.7350000  -5.4880000   8.5020000   1.2010000
  -5.9130000   9.5040000   1.1410000  -6.2650000   7.7470000   1.3160000
  -4.7350000   8.4440000   1.9880000  -4.5890000  10.7370000  -0.7500000
  -3.8800000  11.3690000  -1.2850000  -4.7460000  11.0780000   0.2730000
  -5.5900000  10.6520000  -1.1740000  -3.9930000   4.9930000   1.3220000
  -3.0330000   5.3050000   1.3500000  -4.4700000   3.9780000   2.3090000
  -5.1790000   4.4990000   2.9510000  -3.6610000   3.7050000   2.9860000
  -5.1740000   2.6980000   1.7270000  -5.6920000   2.0150000   2.5850000
  -5.2330000   2.4280000   0.4020000  -4.8440000   3.1080000  -0.2350000
  -6.2370000   1.4320000  -0.0320000  -7.2320000   1.6600000   0.3490000
  -5.9440000  -0.0350000   0.4270000  -6.8810000  -0.7160000   0.9030000
  -6.2920000   1.2340000  -1.5430000  -7.1100000   0.5830000  -1.8520000
  -5.3120000   0.9140000  -1.8970000  -6.7250000   2.5820000  -2.2150000
  -5.9300000   3.3140000  -2.0740000  -7.6330000   2.9710000  -1.7530000
  -6.8670000   2.4350000  -3.7520000  -6.4400000   1.4170000  -4.3410000
  -7.3260000   3.4600000  -4.3120000  -4.7170000  -0.5920000   0.2740000
  -4.0060000  -0.0810000  -0.2290000  -4.5360000  -2.0390000   0.4170000
  -4.8590000  -2.3660000  -0.5710000  -5.1450000  -2.4900000   1.2010000
  -3.0570000  -2.4710000   0.6640000  -2.1430000  -1.8590000   0.1450000
  -2.8700000  -3.5100000   1.5310000  -3.6430000  -4.1000000   1.8030000
  -1.6310000  -3.9900000   2.0720000  -0.8860000  -3.6780000   1.3390000
  -1.5450000  -5.5130000   2.1070000  -2.5490000  -6.1990000   2.4360000
  -1.3430000  -3.2860000   3.3770000  -1.6010000  -2.2370000   3.2310000
  -1.8780000  -3.7060000   4.2290000   0.0760000  -3.1280000   3.8980000
   0.7400000  -3.8980000   4.7510000   0.3720000  -4.7910000   5.2340000
   0.9630000  -2.1460000   3.4500000   2.0440000  -3.4700000   4.8250000
   2.7830000  -3.9060000   5.3580000   2.2300000  -2.3410000   4.1110000
   0.8090000  -1.0920000   2.5080000  -0.0270000  -1.0800000   1.8250000
   3.3240000  -1.5130000   3.9110000   4.1660000  -1.6460000   4.5740000
   1.9180000  -0.2030000   2.4090000   1.7850000   0.5910000   1.6880000
   3.0990000  -0.4110000   3.1440000   3.8840000   0.3310000   3.1290000
  -0.3860000  -6.0730000   1.7240000   0.4250000  -5.5340000   1.4550000
  -0.0680000  -7.4740000   1.9100000  -0.2710000  -7.6270000   2.9700000
   0.9850000  -7.5930000   1.6550000  -0.8600000  -8.5190000   1.0620000
  -0.7430000  -9.6850000   1.3650000  -1.5250000  -8.0040000   0.0130000
  -1.3680000  -7.0360000  -0.2290000  -2.2840000  -8.8760000  -0.9610000
  -3.1680000  -8.3240000  -1.2800000  -2.7110000  -9.7420000  -0.4550000
  -1.5690000  -9.3900000  -2.1910000  -0.3240000  -9.3950000  -2.2290000
  -2.3210000  -9.6130000  -3.2430000  -3.3160000  -9.4470000  -3.2880000
  -1.7020000 -10.0150000  -4.5140000  -0.7040000 -10.3860000  -4.2810000
  -1.5400000  -8.7030000  -5.3130000  -2.5080000  -8.1960000  -5.8440000
  -2.4450000 -11.0970000  -5.2400000  -1.9600000 -11.2620000  -6.2020000
  -3.4570000 -10.7020000  -5.3280000  -2.4750000 -12.4370000  -4.5870000
  -3.3090000 -12.7040000  -3.7080000  -1.7450000 -13.3650000  -4.9610000
  -0.3200000  -8.1370000  -5.4190000   0.4830000  -8.5870000  -5.0030000
  -0.0550000  -7.1460000  -6.4990000  -0.0670000  -7.6320000  -7.4740000
  -0.8850000  -6.4400000  -6.5310000   1.2200000  -6.3960000  -6.3430000
   1.8440000  -6.5420000  -5.2650000   1.6900000  -5.6480000  -7.3210000
   1.2190000  -5.5300000  -8.2060000   3.0590000  -5.0930000  -7.1870000
   3.6420000  -5.9540000  -6.8600000   3.0200000  -3.9510000  -6.1290000
   2.0170000  -3.2080000  -6.0500000   3.5750000  -4.5630000  -8.5400000
   4.5340000  -4.0630000  -8.4000000   3.7050000  -5.3400000  -9.2930000
   2.5960000  -3.6170000  -8.9320000   2.1420000  -3.9930000  -9.6900000
   4.1040000  -3.7590000  -5.3620000   4.9700000  -4.2150000  -5.6100000
   3.9970000  -3.0000000  -4.0710000   4.9210000  -3.2380000  -3.5440000
   3.1870000  -3.3370000  -3.4230000   4.0250000  -1.4980000  -4.1910000
   4.5250000  -0.9940000  -5.1870000   3.6460000  -0.8070000  -3.0770000
   3.5740000  -1.4190000  -2.2770000   3.8320000   0.6120000  -2.8060000
   2.9810000   1.0140000  -2.2560000   3.8380000   1.0680000  -3.7960000
   5.0520000   0.7970000  -2.0190000   5.6270000  -0.0810000  -1.3540000
   5.6470000   2.0330000  -2.1110000   5.0170000   2.7330000  -2.4740000
   6.9360000   2.5190000  -1.6360000   7.3640000   1.7600000  -0.9810000
   6.6910000   3.7710000  -0.7250000   5.7110000   4.4840000  -0.9340000
   7.8470000   2.8500000  -2.8000000   7.3870000   3.6250000  -3.4130000
   8.7910000   3.0890000  -2.3080000   8.0450000   1.7140000  -3.7480000
   7.1350000   1.6120000  -4.3410000   8.2230000   0.7870000  -3.2030000
   9.2180000   1.9360000  -4.7240000  10.3470000   2.0780000  -4.2350000
   9.0110000   2.0770000  -5.9700000   7.5250000   4.0460000   0.2850000
   8.4120000   3.5690000   0.3660000   7.2740000   5.2010000   1.1470000
   6.4540000   5.0050000   1.8370000   7.0840000   6.1490000   0.6430000
   8.3980000   5.3870000   2.1350000   9.4240000   4.7630000   2.0360000
   8.2400000   6.4200000   3.0050000   7.3640000   6.9120000   2.9030000
   9.2970000   7.0080000   3.9070000   9.8180000   6.1300000   4.2870000
   8.6600000   7.8070000   5.1040000   7.9740000   8.8170000   4.7610000
  10.3180000   7.9160000   3.1150000  10.5660000   7.4720000   2.1510000
  11.2430000   7.8460000   3.6870000   9.8470000   9.2180000   2.8130000
   9.2320000   9.3570000   3.5370000   9.0230000   7.6340000   6.3040000
  -5.2020000   7.1310000   5.7940000  -4.5810000   8.0250000   4.7480000
  -3.5490000   7.3000000   3.9320000  -2.9210000   8.1910000   2.9110000
  -1.8360000   7.5210000   2.0960000  -1.1360000   8.5240000   1.1920000
  -1.5900000   8.5110000  -0.2560000  -2.4230000   6.5090000   1.3140000
  -2.0110000   5.2580000   1.4620000  -1.3270000   4.8960000   2.3950000
  -2.4290000   4.3920000   0.3520000  -1.7530000   3.2620000   0.1130000
  -2.0350000   2.4030000  -1.0500000  -3.1230000   2.6110000  -1.8670000
  -3.3370000   1.8060000  -2.9740000  -2.4680000   0.7870000  -3.2570000
  -2.6190000  -0.0270000  -4.3430000  -3.8690000  -0.0780000  -5.0200000
  -1.3710000   0.5720000  -2.4440000  -1.1660000   1.3770000  -1.3300000
  -4.9429000   7.5040000   6.7958000  -6.2955000   7.1312000   5.6742000
  -4.8202000   6.1064000   5.6742000  -5.3725000   8.3902000   4.0771000
  -4.0828000   8.8587000   5.2645000  -2.7651000   6.9217000   4.6046000
  -4.0495000   6.4752000   3.4036000  -3.7067000   8.5372000   2.2234000
  -2.4444000   9.0175000   3.4586000  -1.0853000   7.0942000   2.7774000
  -1.3157000   9.5310000   1.5966000  -0.0736000   8.2392000   1.1828000
  -2.6888000   8.4795000  -0.2955000  -1.2308000   9.4198000  -0.7611000
  -1.1794000   7.6242000  -0.7611000  -3.2884000   4.6692000  -0.2762000
  -0.9570000   2.9635000   0.8111000  -3.8287000   3.4234000  -1.6390000
  -4.2050000   1.9857000  -3.6254000  -4.6844000  -0.1113000  -4.2824000
  -3.9812000   0.8163000  -5.6506000  -3.9080000  -0.9785000  -5.6506000
  -0.6613000  -0.2351000  -2.6785000  -0.3053000   1.1919000  -0.6706000
