
  551  0.0000000e+00
  -0.6310000  10.2010000  -4.1250000  -1.4730000  10.7530000  -4.0500000
  -0.5320000   9.8160000  -5.0530000   0.1220000  10.8630000  -4.0030000
  -0.6720000   9.0850000  -3.1360000  -0.6640000   9.5420000  -2.1460000
   0.5890000   8.2020000  -3.3160000   1.1890000   8.3200000  -4.4100000
  -1.9330000   8.2090000  -3.3040000  -2.9060000   8.6710000  -3.1340000
  -1.9820000   7.3650000  -2.6160000  -1.8650000   7.7810000  -4.3040000
   0.9810000   7.3600000  -2.3720000   0.4710000   7.3620000  -1.5000000
   1.8810000   6.2080000  -2.5220000   2.6540000   6.5250000  -3.2230000
   1.1230000   5.1700000  -3.2660000  -0.0580000   5.0100000  -2.8840000
   2.4980000   5.7810000  -1.1740000   1.8450000   5.9300000  -0.3140000
   3.6880000   6.7200000  -0.9140000   4.4850000   6.3390000  -1.5530000
   3.4420000   7.7420000  -1.2020000   2.9290000   4.4160000  -1.1490000
   2.1010000   3.8270000  -1.5430000   3.2010000   3.9780000  -0.1890000
   3.7780000   4.2750000  -1.8190000   4.2580000   6.8250000   0.5020000
   5.1420000   7.4620000   0.4650000   4.5010000   5.7910000   0.7450000
   3.5450000   7.2920000   1.1810000   1.6200000   4.4600000  -4.2880000
   2.5780000   4.5940000  -4.5790000   0.8690000   3.3810000  -4.9190000
   0.0010000   3.0900000  -4.3290000   1.7840000   2.2120000  -5.0310000
   2.9630000   2.3450000  -5.4610000   0.5000000   3.7560000  -6.3390000
   1.3590000   4.0440000  -6.9450000  -0.2640000   2.6390000  -7.1480000
  -0.9870000   2.0830000  -6.5500000   0.4840000   1.9120000  -7.4650000
  -0.7310000   3.0080000  -8.0610000  -0.4450000   4.9850000  -6.5080000
  -0.2890000   5.7400000  -5.7370000  -1.4880000   4.7190000  -6.3330000
  -0.3670000   5.3080000  -7.5460000   1.3110000   1.0350000  -4.7380000
   0.3300000   0.9860000  -4.5030000   2.0500000  -0.2430000  -4.5600000
   3.1300000  -0.0970000  -4.6070000   1.6410000  -1.2250000  -5.7320000
   0.4430000  -1.5810000  -5.8370000   1.6800000  -0.8730000  -3.1580000
   0.6070000  -1.0580000  -3.1220000   2.1680000  -1.8480000  -3.1540000
   2.0190000  -0.0850000  -1.9130000   2.1080000  -0.7420000  -1.0490000
   3.4570000   0.4630000  -1.9600000   3.4950000   1.3350000  -2.6130000
   3.6530000   0.9070000  -0.9840000   4.2130000  -0.2960000  -2.1610000
   1.0330000   1.0480000  -1.4900000   0.9210000   1.8290000  -2.2410000
   0.0630000   0.5510000  -1.4630000   1.2370000   1.4730000  -0.5070000
   2.6410000  -1.6530000  -6.5610000   3.5990000  -1.4340000  -6.3280000
   2.4510000  -2.7180000  -7.5960000   1.3960000  -2.9880000  -7.6320000
   3.1430000  -4.0540000  -7.2090000   4.2780000  -3.9850000  -6.7890000
   2.8520000  -2.2900000  -9.0220000   2.6190000  -3.1850000  -9.6000000
   3.9030000  -2.0110000  -8.9530000   1.9280000  -1.1080000  -9.4340000
   1.9870000  -0.3090000  -8.6950000   0.9290000  -1.4890000  -9.6460000
   2.5970000  -0.5490000 -10.7430000   3.6260000  -0.2300000 -10.5740000
   2.6740000  -1.3510000 -11.4760000   1.7530000   0.6240000 -11.1910000
   0.7070000   0.3210000 -11.2360000   2.0830000   0.9480000 -12.1780000
   1.9850000   1.7980000 -10.2800000   2.0590000   1.4500000  -9.3340000
   1.3540000   2.5620000 -10.4730000   2.9210000   2.1570000 -10.4020000
   2.5460000  -5.1950000  -7.5400000   1.6550000  -5.1500000  -8.0130000
   3.0590000  -6.5720000  -7.3970000   2.2240000  -7.2340000  -7.6240000
   3.5990000  -7.0050000  -5.9890000   4.6230000  -7.7160000  -5.8540000
   4.0940000  -6.8280000  -8.4990000   5.0740000  -6.4580000  -8.1970000
   4.3980000  -7.8720000  -8.5800000   3.8680000  -6.2220000  -9.8220000
   2.9070000  -6.4930000 -10.5420000   4.6030000  -5.2090000 -10.0720000
   5.3910000  -4.9730000  -9.4870000   4.5120000  -4.9450000 -11.0420000
   2.9300000  -6.5330000  -4.9370000   2.0260000  -6.1070000  -5.0890000
   3.1700000  -7.0940000  -3.5380000   3.9930000  -7.8080000  -3.5470000
   1.8960000  -7.8710000  -3.0310000   1.1610000  -8.4560000  -3.7930000
   3.7040000  -5.9130000  -2.6510000   3.9840000  -6.4290000  -1.7320000
   2.7020000  -4.7560000  -2.3560000   2.3210000  -4.2330000  -3.2330000
   1.7770000  -5.1710000  -1.9560000   5.0280000  -5.4270000  -3.2130000
   5.5480000  -5.0490000  -2.3330000   4.8550000  -4.5620000  -3.8530000
   5.6390000  -6.0920000  -3.8230000   3.1870000  -3.7430000  -1.3160000
   3.7420000  -4.3070000  -0.5670000   3.8940000  -3.0600000  -1.7880000
   2.3090000  -3.2100000  -0.9510000   1.7990000  -8.0270000  -1.7070000
   2.5950000  -7.7540000  -1.1480000   0.5400000  -8.5300000  -1.0550000
  -0.1710000  -9.0130000  -1.7260000  -0.1900000  -7.3670000  -0.3880000
   0.3410000  -6.2400000  -0.2630000   0.9210000  -9.6330000  -0.1020000
   1.4650000 -10.3300000  -0.7400000   0.0400000 -10.1820000   0.2290000
   1.6680000  -9.0910000   1.0180000   2.5840000  -9.2840000   0.8020000
  -1.4150000  -7.6240000   0.0640000  -1.8770000  -8.4790000  -0.2120000
  -2.1030000  -6.7570000   1.0230000  -2.0540000  -5.7520000   0.6030000
  -1.4090000  -6.6760000   2.4300000  -1.5050000  -5.6750000   3.1510000
  -3.5550000  -7.2680000   1.0980000  -3.9630000  -7.1390000   0.0950000
  -3.6310000  -8.2620000   1.5380000  -4.4250000  -6.5000000   2.0710000
  -4.1420000  -6.6210000   3.1160000  -4.3370000  -5.4210000   1.9410000
  -5.8930000  -6.9350000   2.0430000  -6.3090000  -7.5660000   3.0520000
  -6.5450000  -6.5980000   1.0200000  -0.6250000  -7.6560000   2.8590000
  -0.6870000  -8.5410000   2.3770000   0.0470000  -7.6900000   4.0740000
  -0.6500000  -7.4510000   4.8770000   1.3760000  -6.8770000   4.1630000
   1.7280000  -6.2590000   5.1830000   0.4710000  -9.1670000   4.3390000
   0.6110000  -9.6890000   3.3920000   1.3750000  -9.1350000   4.9470000
  -0.5580000  -9.9750000   5.1350000  -0.6780000  -9.5210000   6.1190000
  -0.2090000 -11.0050000   5.2100000  -1.8580000 -10.0810000   4.4280000
  -2.9680000  -9.8810000   5.0560000  -1.9330000 -10.4790000   3.2310000
   2.0380000  -6.7730000   2.9920000   1.6660000  -7.2990000   2.2140000
   3.0340000  -5.8740000   2.5280000   3.7980000  -5.8380000   3.3040000
   2.5140000  -4.4690000   2.3410000   3.0570000  -3.5050000   2.8170000
   3.7060000  -6.4420000   1.2770000   2.9730000  -6.6470000   0.4970000
   4.4330000  -5.7190000   0.9070000   4.4240000  -7.7530000   1.5740000
   3.8080000  -8.4020000   2.1950000   5.3430000  -7.6480000   2.1510000
   4.6950000  -8.4970000   0.3080000   5.6750000  -8.2410000  -0.4410000
   4.1160000  -9.5600000   0.1830000   1.4150000  -4.2980000   1.6600000
   0.8680000  -5.0810000   1.3330000   0.7530000  -2.9830000   1.5600000
   1.4170000  -2.1950000   1.2040000   0.2570000  -2.4090000   2.8930000
   0.5370000  -1.1970000   3.1840000  -0.4130000  -3.2280000   0.5690000
  -1.0920000  -4.0090000   0.9110000   0.0410000  -3.3830000  -0.4090000
  -0.8580000  -2.2340000   0.6230000  -0.2460000  -3.2480000   3.7810000
  -0.2510000  -4.2390000   3.5840000  -0.7510000  -2.7900000   5.0390000
  -1.3740000  -1.9280000   4.8010000   0.3480000  -2.4420000   6.0760000
   0.1680000  -1.5990000   6.9460000  -1.6890000  -3.8530000   5.5820000
  -2.4870000  -4.0580000   4.8690000  -1.0850000  -4.7440000   5.7510000
  -2.1500000  -3.4180000   6.4690000   1.5010000  -3.0790000   5.9690000
   1.6120000  -3.8470000   5.3220000   2.7280000  -2.6350000   6.6760000
   2.4830000  -2.6220000   7.7380000   3.2430000  -1.2320000   6.3080000
   3.5930000  -0.4700000   7.2200000   3.7720000  -3.7420000   6.4870000
   3.3310000  -4.7200000   6.6810000   4.1560000  -3.7230000   5.4670000
   4.9930000  -3.6380000   7.3270000   5.0120000  -2.5670000   7.5270000
   4.7840000  -4.1700000   8.2550000   6.2830000  -4.0730000   6.6400000
   6.3110000  -4.9560000   5.7860000   7.3310000  -3.4930000   6.9930000
   3.1530000  -0.8610000   5.0530000   2.9170000  -1.6790000   4.5090000
   3.5620000   0.4520000   4.4560000   4.5430000   0.7400000   4.8340000
   2.6000000   1.4910000   5.0780000   2.9670000   2.5670000   5.4580000
   3.5970000   0.3440000   2.8830000   2.5940000  -0.0530000   2.7230000
   4.6470000  -0.6510000   2.4290000   5.6990000  -0.3670000   2.3920000
   4.7390000  -1.5130000   3.0900000   3.5690000   1.6520000   2.1930000
   3.6180000   1.5290000   1.1120000   4.3980000   2.3030000   2.4730000
   2.6130000   2.1220000   2.4230000   4.2240000  -1.2450000   0.9810000
   3.1760000  -1.0210000   0.7870000   4.4150000  -2.3130000   0.8690000
   4.8910000  -0.7840000   0.2530000   1.3110000   1.1130000   5.2200000
   0.9020000   0.3320000   4.7290000   0.3300000   2.1370000   5.6650000
   0.4450000   3.0970000   5.1620000   0.2750000   2.3050000   7.1190000
   0.1540000   3.4460000   7.6310000  -1.1210000   1.6940000   5.1590000
  -1.0780000   1.4150000   4.1060000  -1.5300000   0.9420000   5.8340000
  -1.7330000   2.5930000   5.2260000   0.5660000   1.2000000   7.8840000
   0.7300000   0.2970000   7.4630000   0.7260000   1.3180000   9.3580000
  -0.1740000   1.7980000   9.7440000   1.9250000   2.1770000   9.8020000
   1.6570000   3.0940000  10.6010000   0.8320000  -0.1260000   9.9090000
   1.3430000  -0.0100000  10.8650000   1.5410000  -0.7470000   9.3620000
  -0.5320000  -0.8620000  10.0490000  -1.1940000  -0.1830000  10.5870000
  -0.8840000  -1.1310000   9.0530000  -0.3550000  -2.1540000  10.9010000
  -1.2980000  -2.5470000  11.2790000  -0.0150000  -1.7620000  11.8600000
   0.6490000  -3.0900000  10.4240000   1.5330000  -3.0840000  10.9110000
   0.5190000  -4.0140000   9.4850000  -0.6220000  -4.1510000   8.9050000
  -0.7990000  -5.0440000   8.4670000  -1.4430000  -3.6620000   9.2340000
   1.4990000  -4.8300000   9.0940000   1.3180000  -5.6380000   8.5150000
   2.3710000  -4.8970000   9.5990000   3.0710000   2.0430000   9.1150000
   3.1730000   1.3000000   8.4380000   4.2090000   2.9930000   9.3290000
   4.3510000   3.0290000  10.4090000   4.0420000   4.4050000   8.7840000
   4.7200000   5.2630000   9.2160000   5.5200000   2.4270000   8.7980000
   5.3910000   2.2250000   7.7350000   6.2500000   3.2300000   8.9050000
   5.8920000   1.1260000   9.5640000   5.0630000   0.4180000   9.5320000
   6.1220000   1.3510000  10.6050000   7.1110000   0.4810000   8.8670000
   7.9510000   1.1530000   9.0420000   7.4100000  -0.4480000   9.3510000
   6.9400000   0.1310000   7.4310000   7.1520000   1.0290000   6.8500000
   5.9080000  -0.1930000   7.2960000   7.9280000  -0.9110000   6.9690000
   7.9240000  -0.9800000   5.9610000   7.7520000  -1.8350000   7.3380000
   8.8560000  -0.6170000   7.2400000   3.0620000   4.6830000   7.9030000
   2.5310000   3.9200000   7.5100000   2.7420000   6.0750000   7.4810000
   3.6340000   6.7000000   7.5170000   1.6300000   6.7350000   8.2740000
   1.4040000   7.9380000   8.0840000   2.4080000   6.0040000   6.0270000
   1.9360000   6.9450000   5.7450000   1.5810000   5.3250000   5.8210000
   3.5310000   5.5770000   5.0570000   3.8710000   4.5960000   5.3890000
   3.0670000   5.6320000   3.6220000   2.8650000   6.6660000   3.3430000
   3.7740000   5.1490000   2.9490000   2.1710000   5.0120000   3.6230000
   4.7460000   6.5650000   5.1710000   4.4920000   7.6200000   5.2730000
   5.3890000   6.3030000   6.0110000   5.3390000   6.5490000   4.2560000
   0.9110000   5.9260000   8.9830000   1.1930000   4.9580000   8.9320000
  -0.4790000   6.3670000   9.4010000  -0.4360000   7.2640000  10.0190000
  -0.9380000   5.5820000  10.0010000  -1.4840000   6.5930000   8.3040000
  -2.5470000   7.1460000   8.6050000  -1.1660000   6.2850000   7.0310000
  -0.4010000   5.6490000   6.8530000  -1.9300000   6.6920000   5.8420000
  -1.3750000   6.2290000   5.0260000  -1.8920000   7.7700000   5.6800000
  -3.3050000   6.1190000   5.8100000  -3.6220000   5.1810000   6.4750000
  -4.1560000   6.5560000   4.9020000  -3.8510000   7.2090000   4.1950000
  -5.3420000   5.8160000   4.5390000  -6.0870000   6.4580000   4.0680000
  -5.7480000   5.3730000   5.4480000  -4.9340000   4.6150000   3.6350000
  -3.8720000   4.6040000   3.0900000  -5.8590000   3.6770000   3.5040000
  -6.7560000   3.7580000   3.9600000  -5.6490000   2.6680000   2.4300000
  -4.8710000   3.0150000   1.7490000  -6.9740000   2.3760000   1.5970000
  -8.0750000   2.4620000   2.1410000  -5.0920000   1.4020000   3.0860000
  -4.3620000   1.7660000   3.8090000  -4.3800000   0.3920000   2.1590000
  -5.0750000  -0.2230000   1.5880000  -3.7680000   1.0250000   1.5160000
  -6.2310000   0.6720000   3.8310000  -7.0020000   1.4070000   4.0640000
  -5.8450000   0.2880000   4.7760000  -6.6520000  -0.1770000   3.2940000
  -3.4600000  -0.7100000   2.8120000  -3.2700000  -1.4260000   2.0130000
  -4.1210000  -1.2440000   3.4950000  -2.5380000  -0.3020000   3.2270000
  -6.8390000   1.9930000   0.3020000  -5.9170000   2.0840000  -0.0990000
  -7.7510000   1.0340000  -0.3460000  -7.9740000   0.2480000   0.3750000
  -7.0930000   0.3040000  -1.5640000  -6.1700000   0.8000000  -2.1680000
  -9.1180000   1.6400000  -0.8250000  -9.6460000   2.0940000   0.0130000
  -9.8010000   0.8440000  -1.1230000  -8.9920000   2.5660000  -2.0740000
  -8.8520000   1.9440000  -2.9590000  -8.1390000   3.2270000  -1.9180000
 -10.0820000   3.5970000  -2.2950000  -9.8340000   4.6060000  -2.9570000
 -11.2080000   3.3580000  -1.7760000  -7.6860000  -0.8520000  -1.8870000
  -8.5180000  -1.0390000  -1.3460000  -7.3940000  -1.6700000  -3.0830000
  -6.3440000  -1.6080000  -3.3690000  -8.0950000  -1.0560000  -4.2930000
  -9.3050000  -0.8430000  -4.1820000  -7.7030000  -3.1790000  -2.7750000
  -8.7590000  -3.4070000  -2.9180000  -7.4660000  -3.4320000  -1.7410000
  -6.8130000  -3.9860000  -3.6920000  -7.1180000  -3.7900000  -4.7200000
  -5.7930000  -3.6710000  -3.4730000  -7.1210000  -5.5070000  -3.3660000
  -8.1890000  -5.7020000  -3.4600000  -6.8720000  -5.6270000  -2.3110000
  -6.1420000  -6.2920000  -4.2970000  -5.0990000  -5.9880000  -4.2080000
  -6.4460000  -6.0620000  -5.3180000  -6.2500000  -7.7200000  -4.1350000
  -7.1000000  -8.0660000  -3.7140000  -6.0170000  -8.1830000  -5.0020000
  -5.5550000  -7.9470000  -3.4380000  -7.4200000  -0.9600000  -5.4240000
  -6.4560000  -1.1670000  -5.2040000  -7.9480000  -0.5790000  -6.7920000
  -9.0360000  -0.6380000  -6.7810000  -7.5820000  -1.5380000  -7.9450000
  -6.6020000  -1.3110000  -8.6910000  -7.6100000   0.8530000  -7.1160000
  -6.5300000   1.0020000  -7.1410000  -8.1570000   1.3960000  -8.4590000
  -7.9220000   0.6710000  -9.2390000  -7.7450000   2.3690000  -8.7240000
  -9.2410000   1.5000000  -8.4280000  -8.0850000   1.7080000  -5.9770000
  -7.9700000   2.7750000  -6.1630000  -7.6600000   1.5580000  -4.9840000
  -9.1590000   1.5850000  -5.8370000  -8.3870000  -2.6270000  -8.1940000
  -9.2310000  -2.7540000  -7.6540000  -7.8670000  -3.8220000  -8.9570000
  -7.4300000  -3.5740000  -9.9240000  -8.6220000  -4.5500000  -9.2550000
  -6.9240000  -4.5450000  -7.9930000  -7.3490000  -4.9930000  -6.9850000
  -5.6490000  -4.6990000  -8.3330000  -5.5060000  -4.4390000  -9.2980000
  -4.6340000  -5.2090000  -7.4450000  -4.9980000  -5.2600000  -6.4190000
  -3.4710000  -4.2000000  -7.1600000  -2.4450000  -4.5510000  -6.6490000
  -4.0880000  -6.5620000  -7.9140000  -3.2050000  -6.7850000  -7.3130000
  -3.7140000  -6.4940000  -8.9350000  -5.2050000  -7.5930000  -7.7220000
  -5.3260000  -8.0450000  -6.5580000  -5.8690000  -8.0970000  -8.6500000
  -3.5120000  -2.9420000  -7.6590000  -4.2560000  -2.6020000  -8.2510000
  -2.7250000  -1.8710000  -6.9610000  -1.6770000  -2.1670000  -6.9790000
  -3.2170000  -1.7620000  -5.4860000  -4.4160000  -1.7470000  -5.2860000
  -2.8780000  -0.5170000  -7.5160000  -3.9330000  -0.2510000  -7.5690000
  -2.4890000   0.2720000  -6.8730000  -2.3690000  -0.2980000  -8.8160000
  -2.6620000  -0.9710000  -9.4360000  -2.3580000  -1.5590000  -4.4870000
  -1.3600000  -1.4720000  -4.6160000  -2.8930000  -0.9950000  -3.1820000
  -3.9710000  -1.1410000  -3.1150000  -2.5630000   0.4850000  -3.3010000
  -1.5590000   0.8660000  -3.9500000  -2.2220000  -1.7330000  -2.0070000
  -2.5240000  -1.3730000  -1.0240000  -1.1330000  -1.6890000  -2.0180000
  -2.4880000  -3.2470000  -2.1100000  -3.6670000  -3.7960000  -1.5540000
  -4.2370000  -3.1530000  -0.9000000  -1.6090000  -4.0990000  -2.7920000
  -0.7020000  -3.6840000  -3.2070000  -3.9970000  -5.1240000  -1.7660000
  -4.8800000  -5.4960000  -1.2680000  -1.9540000  -5.4440000  -3.0410000
  -1.2440000  -5.9780000  -3.6550000  -3.1990000  -5.9670000  -2.4880000
  -3.3570000  -7.2540000  -2.5990000  -2.5640000  -7.7520000  -2.8130000
  -3.4030000   1.2990000  -2.6510000  -4.2170000   0.9920000  -2.1390000
  -3.1690000   2.7460000  -2.7500000  -2.1710000   2.9210000  -3.1500000
  -3.1390000   3.2630000  -1.2810000  -4.0650000   3.0220000  -0.4920000
  -4.1460000   3.4600000  -3.7530000  -5.2010000   3.3000000  -3.5320000
  -3.7400000   2.7750000  -5.1190000  -2.6670000   2.9120000  -5.2540000
  -3.9380000   1.7070000  -5.2010000  -3.7910000   4.9750000  -3.8230000
  -2.7480000   5.0410000  -4.1310000  -4.4500000   5.4650000  -4.5410000
  -3.8680000   5.4580000  -2.8490000  -4.3860000   3.5160000  -6.2590000
  -5.4690000   3.4790000  -6.1380000  -4.1540000   3.0620000  -7.2230000
  -4.0440000   4.5260000  -6.4840000  -2.0030000   3.9110000  -0.8880000
  -1.4570000   4.2430000  -1.6700000  -1.7860000   4.3300000   0.4780000
  -2.6490000   4.1350000   1.1150000  -1.7580000   5.8670000   0.4360000
  -1.0680000   6.4750000  -0.3710000  -0.5330000   3.5870000   1.0460000
   0.2460000   3.6470000   0.2870000  -0.1310000   4.2070000   2.3890000
   0.3110000   5.1880000   2.2120000  -1.0100000   4.3790000   3.0090000
   0.5350000   3.5200000   2.9120000  -0.8240000   2.1680000   1.3470000
  -1.1600000   1.6670000   0.4390000   0.0750000   1.7560000   1.8060000
  -1.5410000   2.1050000   2.1650000  -2.5620000   6.4500000   1.3440000
  -3.1090000   5.8390000   1.9320000  -3.0070000   7.9010000   1.2670000
  -2.5240000   8.2810000   0.3670000  -2.4200000   8.7450000   2.3600000
  -2.4370000   8.2580000   3.5140000  -4.5300000   7.9710000   1.1220000
  -4.8850000   8.9960000   1.0100000  -5.0310000   7.5990000   2.0160000
  -5.0000000   7.1700000  -0.0890000  -5.0840000   7.7290000  -1.3730000
  -4.5830000   8.6660000  -1.5640000  -5.6910000   5.9280000   0.1820000
  -5.8270000   5.5230000   1.1740000  -5.7670000   7.1100000  -2.4760000
  -5.8420000   7.4860000  -3.4850000  -6.4850000   5.4250000  -0.8590000
  -7.1590000   4.5950000  -0.7110000  -6.5210000   6.0040000  -2.1490000
  -7.2120000   5.4370000  -3.1850000  -8.1340000   5.2630000  -2.9840000
  -1.9800000   9.8550000   2.0540000   8.9860000   2.8410000   6.2740000
   7.4680000   3.1230000   6.2430000   6.8420000   2.2530000   5.2000000
   7.8690000   1.6780000   4.2000000   7.2650000   1.7860000   2.8110000
   6.7110000   3.1180000   2.6080000   5.8480000   3.2260000   1.3870000
   8.2790000   1.5430000   1.7840000   8.2590000   0.4210000   1.2010000
   8.7300000  -0.5210000   1.7940000   7.6760000   0.2770000  -0.2450000
   6.5920000  -0.5100000  -0.4340000   6.0560000  -0.7710000  -1.7450000
   5.4980000  -1.9910000  -2.0580000   4.9440000  -2.2440000  -3.2610000
   4.9470000  -1.2400000  -4.2030000   4.4480000  -1.4230000  -5.4440000
   5.3960000  -1.7410000  -6.4480000   5.5210000  -0.0350000  -3.9400000
   6.0710000   0.2010000  -2.6990000   9.3259539   2.7778465   7.3182428
   9.1926199   1.8891047   5.7629193   9.5207049   3.6551789   5.7629193
   7.0290476   2.8972655   7.2260385   7.2873867   4.1820283   6.0066994
   6.3332124   1.4159892   5.7005478   6.1392186   2.8771099   4.6285238
   8.8040833   2.2552811   4.2486398   8.0992094   0.6298093   4.4414536
   6.4710505   1.0291215   2.7286639   6.1047709   3.3808794   3.4874207
   7.5594622   3.8036720   2.4666995   4.7987525   3.3573079   1.6900476
   6.1675268   4.0911636   0.7875047   5.9444703   2.3087765   0.7875047
   8.1390599   0.8057386  -1.0911744   6.1047225  -0.9648092   0.4410481
   5.5046240  -2.7874059  -1.2992551   4.5015602  -3.2261551  -3.4837517
   6.3379840  -2.0569820  -5.9759602   5.0073379  -2.5579549  -7.0737208
   5.5786073  -0.8549255  -7.0737208   5.5458766   0.7464836  -4.7137341
   6.5241585   1.1785918  -2.4777274
