
  371  0.0000000e+00
   5.9940000  -1.0570000  10.0100000   5.5250000  -0.2040000  10.2790000
   6.9150000  -1.1100000  10.4230000   5.4480000  -1.8210000  10.3830000
   6.0820000  -1.0270000   8.5440000   5.0710000  -0.9010000   8.1570000
   6.6290000  -2.4140000   8.0770000   7.3430000  -3.0850000   8.8460000
   6.9240000   0.1750000   8.0970000   7.8620000  -0.2130000   7.7010000
   7.0940000   0.7790000   8.9870000   6.4050000   1.1150000   6.9840000
   5.0660000   1.4940000   7.0050000   4.5240000   1.3870000   7.9340000
   7.2450000   1.6060000   5.9530000   8.2350000   1.1820000   5.8750000
   4.5310000   2.2460000   5.9510000   3.4720000   2.4440000   6.0270000
   6.7470000   2.4740000   4.9850000   7.4350000   2.7740000   4.2090000
   5.3450000   2.7300000   4.9260000   4.8590000   3.6680000   4.1050000
   3.9300000   3.5000000   3.9310000   6.1360000  -2.9440000   6.9450000
   5.5580000  -2.3190000   6.4010000   6.3080000  -4.2520000   6.3710000
   5.4410000  -4.8280000   6.6930000   7.1840000  -4.7500000   6.7890000
   6.4400000  -4.2220000   4.8210000   6.9390000  -3.2220000   4.2670000
   5.8860000  -5.2450000   4.1460000   5.5940000  -6.1170000   4.5610000
   6.0270000  -5.2550000   2.6920000   6.7580000  -4.5470000   2.3020000
   4.8090000  -4.7680000   1.9790000   3.7130000  -5.1560000   2.4240000
   6.5290000  -6.6180000   2.1700000   5.9720000  -7.3750000   2.7240000
   6.2470000  -6.6470000   1.1170000   8.0110000  -6.9330000   2.4040000
   8.7530000  -6.1700000   3.0470000   8.4630000  -8.0070000   1.9090000
   4.9220000  -3.9180000   0.9140000   5.7710000  -3.4220000   0.6820000
   3.7890000  -3.5210000   0.0980000   4.1140000  -2.6000000  -0.3860000
   2.9870000  -3.1430000   0.7330000   3.2020000  -4.6140000  -0.8640000
   3.5940000  -5.7630000  -0.8300000   2.3140000  -4.1840000  -1.8000000
   2.0290000  -3.2160000  -1.8560000   1.6380000  -5.0870000  -2.7390000
   1.2660000  -6.0180000  -2.3110000   2.4440000  -5.3910000  -3.4060000
   0.3710000  -4.4360000  -3.4200000   0.0940000  -3.2620000  -3.1590000
  -0.3500000  -5.2260000  -4.2600000  -0.0870000  -6.2010000  -4.2470000
  -1.5120000  -4.7660000  -5.1170000  -1.4300000  -3.6790000  -5.1080000
  -2.8660000  -5.0810000  -4.4190000  -2.9710000  -6.1220000  -3.7660000
  -1.4020000  -5.3640000  -6.5250000  -2.2690000  -5.0660000  -7.1140000
  -1.3260000  -6.4480000  -6.4400000  -0.1460000  -4.8750000  -7.1840000
   0.7090000  -5.0490000  -6.5300000  -0.2950000  -3.8050000  -7.3300000
   0.0080000  -5.5700000  -8.5670000  -0.8440000  -5.1990000  -9.1350000
  -0.2140000  -6.6290000  -8.4380000   1.2770000  -5.2370000  -9.2240000
   1.4290000  -4.3020000  -9.5740000   2.2310000  -6.1310000  -9.5450000
   2.1820000  -7.3610000  -9.2380000   1.3300000  -7.8240000  -8.9540000
   2.9220000  -7.9560000  -9.5820000   3.1930000  -5.6380000 -10.2000000
   3.2270000  -4.6410000 -10.3630000   4.0610000  -6.1540000 -10.1770000
  -3.9570000  -4.3350000  -4.5190000  -4.0930000  -3.6350000  -5.2340000
  -5.2730000  -4.5290000  -3.8900000  -6.0170000  -4.8840000  -4.6020000
  -5.1940000  -5.3190000  -3.1440000  -5.7360000  -3.2940000  -3.1920000
  -5.1760000  -2.2030000  -3.3000000  -6.7500000  -3.4330000  -2.3740000
  -7.2700000  -4.2980000  -2.3320000  -7.2000000  -2.3980000  -1.4410000
  -7.1360000  -1.4020000  -1.8780000  -6.2070000  -2.2910000  -0.2960000
  -5.9850000  -3.2600000   0.3690000  -8.6430000  -2.7550000  -0.9870000
  -8.9860000  -1.9360000  -0.3550000  -8.7270000  -3.6670000  -0.3960000
  -9.6780000  -2.8570000  -2.1100000 -10.4930000  -1.7770000  -2.3870000
 -10.2930000  -0.8360000  -1.8950000  -9.8860000  -3.9980000  -2.9450000
  -9.3050000  -4.9020000  -2.8350000 -11.5320000  -1.7860000  -3.3070000
 -12.1030000  -0.8980000  -3.5310000 -10.9030000  -4.0180000  -3.8510000
 -11.1170000  -4.8450000  -4.5120000 -11.6870000  -2.9130000  -4.0660000
 -12.3060000  -2.9870000  -4.9490000  -5.5960000  -1.1010000  -0.2110000
  -5.8710000  -0.3280000  -0.8010000  -4.4190000  -0.8290000   0.6320000
  -3.7680000  -0.0820000   0.1790000  -3.8750000  -1.7710000   0.6930000
  -4.7940000  -0.3060000   2.0060000  -5.8860000   0.1710000   2.2210000
  -3.8330000  -0.3570000   3.0060000  -2.9570000  -0.7930000   2.7580000
  -4.1340000  -0.2770000   4.4550000  -4.6420000  -1.1630000   4.8380000
  -4.8240000   0.5480000   4.6290000  -2.9330000   0.1330000   5.3160000
  -2.0310000   0.7440000   4.7500000  -2.9270000  -0.1460000   6.6440000
  -3.7610000  -0.4990000   7.0910000  -1.9290000   0.1530000   7.6050000
  -1.5280000   1.1250000   7.3160000  -0.8050000  -0.8350000   7.5900000
  -0.8900000  -2.0360000   7.6960000  -2.6120000   0.3480000   8.9900000
  -3.4060000   1.0890000   8.8980000  -3.0290000  -0.6110000   9.2980000
  -1.7050000   0.9250000  10.1030000  -0.7780000   0.4110000  10.3560000
  -1.5480000   1.9070000   9.6570000  -2.5970000   1.0630000  11.2940000
  -3.4450000   1.6180000  10.8940000  -2.9320000   0.1030000  11.6880000
  -1.9320000   1.8560000  12.3490000  -1.5230000   2.7660000  11.9120000
  -1.0920000   1.3390000  12.8130000  -2.8320000   2.2100000  13.4420000
  -3.3370000   1.3790000  13.7130000  -3.5640000   2.8800000  13.2510000
  -2.3650000   2.5060000  14.2880000   0.3510000  -0.2550000   7.4300000
   0.3370000   0.7290000   7.2060000   1.5790000  -0.8330000   7.9180000
   1.3940000  -1.3510000   8.8600000   2.2090000   0.0100000   8.2010000
   2.2970000  -1.7910000   6.9580000   3.1710000  -2.4820000   7.4980000
   1.9450000  -1.8410000   5.6430000   1.1610000  -1.3330000   5.2610000
   2.9180000  -2.3380000   4.6140000   3.1960000  -3.3660000   4.8460000
   2.3590000  -2.3560000   3.6780000   4.1660000  -1.4970000   4.4600000
   4.7340000  -1.1460000   5.4850000   4.5990000  -1.2370000   3.2480000
   4.1490000  -1.5920000   2.4160000   5.8730000  -0.4850000   2.9930000
   5.6820000   0.5870000   3.0480000   6.6120000  -0.6240000   3.7830000
   6.6140000  -0.7810000   1.7390000   6.0240000  -1.2830000   0.7780000
   7.8910000  -0.4170000   1.7500000   8.4240000  -0.1650000   2.5700000
   8.8290000  -0.4220000   0.5730000   8.6040000  -1.2720000  -0.0720000
   9.8650000  -0.6080000   0.8550000   8.6730000   0.8870000  -0.1670000
   8.5130000   1.9520000   0.4190000   8.8480000   0.8210000  -1.4520000
   9.0410000  -0.0480000  -1.9300000   8.9920000   2.0020000  -2.3350000
   9.4680000   2.8160000  -1.7890000   7.5870000   2.5620000  -2.8130000
   7.5340000   3.6830000  -3.3490000   9.8640000   1.5640000  -3.4830000
   9.5130000   0.6400000  -3.9420000   9.8610000   2.2930000  -4.2940000
  11.3180000   1.3370000  -3.0150000  11.3470000   0.4880000  -2.3330000
  11.5590000   2.1610000  -2.3430000  12.2510000   1.2210000  -4.2410000
  12.4470000   2.2420000  -4.8930000  12.6080000   0.0820000  -4.6590000
   6.4190000   1.9080000  -2.4750000   6.6160000   1.1410000  -1.8490000
   5.0600000   2.2200000  -2.9710000   4.4880000   1.2920000  -2.9910000
   5.1890000   2.6710000  -3.9550000   4.2780000   3.1700000  -2.1380000
   4.6520000   3.4320000  -0.9920000   3.1210000   3.6490000  -2.6790000
   2.8780000   3.3410000  -3.6100000   2.4380000   4.8590000  -2.2100000
   3.2640000   5.5510000  -2.0410000   1.6810000   4.6500000  -0.8340000
   1.5160000   3.5580000  -0.3150000   1.4280000   5.3730000  -3.3000000
   0.8210000   6.1930000  -2.9170000   0.3660000   4.3200000  -3.6480000
   0.6320000   3.4830000  -4.2930000  -0.0520000   3.8200000  -2.7750000
   2.1460000   5.8800000  -4.5050000   2.6000000   5.1080000  -5.1250000
   2.9210000   6.6260000  -4.3330000   1.4000000   6.3610000  -5.1380000
  -0.8090000   4.9370000  -4.3980000  -1.3330000   5.5170000  -3.6380000
  -1.4850000   4.2300000  -4.8790000  -0.4690000   5.5570000  -5.2270000
   1.1290000   5.7200000  -0.2660000   1.1280000   6.5900000  -0.7780000
   0.3570000   5.6660000   0.9690000   0.9560000   5.3300000   1.8160000
  -0.0870000   6.6510000   1.1150000  -0.9140000   4.7370000   0.8650000
  -1.6080000   4.7250000  -0.1250000  -1.2620000   4.2170000   2.0620000
  -0.6050000   4.3820000   2.8110000  -2.4400000   3.3430000   2.4160000
  -2.6180000   2.6110000   1.6280000  -2.2970000   2.7650000   3.3290000
  -3.7930000   4.0790000   2.5840000  -3.7850000   5.3210000   2.5860000
  -4.8960000   3.3600000   2.6350000  -4.8530000   2.3520000   2.6810000
  -6.2800000   3.9170000   2.5180000  -6.4670000   4.8800000   2.9940000
  -7.0110000   3.2270000   2.9380000  -6.7930000   3.9410000   1.0500000
  -7.9960000   3.9940000   0.7610000  -5.8500000   3.7640000   0.1030000
  -4.8940000   3.5100000   0.3060000  -5.9830000   3.7180000  -1.3990000
  -7.0300000   3.9790000  -1.5530000  -5.7700000   2.3410000  -2.0210000
  -5.1810000   1.5840000  -1.2360000  -4.9600000   4.7320000  -1.9370000
  -3.9940000   4.5220000  -1.4790000  -4.6890000   4.5510000  -2.9780000
  -5.2960000   6.2230000  -1.8410000  -5.2850000   6.4070000  -0.7660000
  -4.3060000   7.1910000  -2.4820000  -3.4010000   6.8510000  -1.9780000
  -4.4360000   8.2590000  -2.3080000  -4.0790000   6.9630000  -3.5230000
  -6.6490000   6.7500000  -2.2490000  -6.7840000   7.8060000  -2.0140000
  -6.7550000   6.5840000  -3.3210000  -7.3190000   6.1070000  -1.6770000
  -6.3380000   2.0740000  -3.1990000  -6.8630000   2.7790000  -3.6960000
  -6.2020000   0.7270000  -3.7550000  -7.0440000   0.1650000  -3.3510000
  -5.3360000   0.2630000  -3.2830000  -6.0470000   0.5480000  -5.2150000
  -6.3950000   1.4670000  -5.9830000  -5.5740000  -0.5790000  -5.6520000
  -5.1210000  -1.2090000  -5.0050000  -5.5870000  -0.9510000  -7.0610000
  -6.4990000  -1.5480000  -7.0470000  -5.6060000  -0.0360000  -7.6530000
  -4.3330000  -1.6880000  -7.5530000  -3.6260000  -2.2700000  -6.7250000
  -4.1160000  -1.7330000  -8.8930000  -4.6630000  -1.0160000  -9.3480000
  -3.0090000  -2.3000000  -9.6570000  -3.1220000  -3.3600000  -9.4330000
  -1.6380000  -1.7930000  -9.2040000  -0.7190000  -2.3940000  -9.7770000
  -3.1910000  -2.0260000 -11.1320000  -2.5190000  -2.7180000 -11.6390000
  -4.2250000  -2.2840000 -11.3590000  -2.9910000  -0.7400000 -11.6490000
  -2.0990000  -0.4410000 -11.4610000  -1.4000000  -0.7260000  -8.4610000
  -2.2220000  -0.3100000  -8.0470000  -0.0810000  -0.2710000  -7.9890000
  -0.2460000   0.7070000  -7.5380000   0.5710000  -0.2310000  -8.8610000
   0.5120000  -1.2770000  -6.8940000  -0.2210000  -1.6450000  -6.0010000
   1.8190000  -1.5820000  -6.8450000   2.3950000  -1.1970000  -7.5800000
   2.5520000  -2.1200000  -5.6220000   2.0390000  -2.9230000  -5.0930000
   2.5590000  -0.9930000  -4.6270000   3.4540000  -0.1640000  -4.6800000
   4.0450000  -2.5190000  -5.8660000   4.6660000  -1.8190000  -6.4260000
   4.4810000  -2.5650000  -4.8680000   4.2200000  -3.9420000  -6.4040000
   3.6420000  -4.8870000  -5.7840000   4.7900000  -4.0580000  -7.5130000
   1.5330000  -0.9490000  -3.7910000   0.7970000  -1.6390000  -3.7580000
   1.3660000   0.1160000  -2.8360000   1.8640000   0.9700000  -3.2940000
   0.3000000   0.3260000  -2.7430000   2.0200000  -0.1430000  -1.5120000
   2.0490000  -1.3310000  -1.0840000   2.5270000   0.8670000  -0.8140000
   2.2690000   1.8280000  -0.9890000   3.2250000   0.5500000   0.3720000
   3.9660000   1.3050000   0.6340000   3.7330000  -0.4070000   0.2560000
   2.2080000   0.4440000   1.5440000   2.0380000  -0.6530000   2.1240000
   1.5880000   1.5760000   1.9240000   1.6090000   2.4040000   1.3470000
   0.6430000   1.6700000   3.0490000   0.7160000   0.7200000   3.5780000
  -0.3580000   1.8670000   2.6660000   0.9980000   2.8350000   4.0550000
   1.9260000   3.5860000   3.7310000   0.2660000   2.9350000   5.1640000
  -0.3800000   2.2090000   5.4360000   0.2830000   4.0570000   6.1610000
   1.2130000   4.6060000   6.0110000   0.4070000   3.6920000   7.5940000
   0.7980000   2.4890000   7.7340000  -0.7710000   5.1270000   5.7810000
  -0.6730000   5.9740000   6.4600000  -0.6420000   5.4160000   4.7380000
  -2.2660000   4.8510000   5.8210000  -2.9010000   3.6750000   6.0240000
  -2.3530000   2.7670000   6.2310000  -3.4180000   5.8190000   5.6620000
  -4.2430000   3.7620000   6.0050000  -4.9020000   3.0050000   5.8880000
  -4.5990000   5.0920000   5.7090000  -3.4280000   7.2210000   5.4100000
  -2.4740000   7.6970000   5.2350000  -5.8550000   5.7410000   5.6070000
  -6.7550000   5.1470000   5.6620000  -4.6760000   7.9280000   5.3180000
  -4.7200000   8.9900000   5.1270000  -5.8430000   7.1600000   5.4520000
  -6.7570000   7.7320000   5.3860000   0.2490000   4.4990000   8.5010000
  -0.8130000   2.3280000  -5.8350000  -0.6830000   0.9980000  -5.4260000
  -0.4050000   0.7140000  -4.1250000  -0.8150000  -0.5140000  -3.6490000
  -0.5670000  -0.8720000  -2.3440000   0.1050000  -0.0110000  -1.5100000
   0.3540000  -0.4170000  -0.1230000   0.3030000   0.3870000   0.6380000
   0.5110000  -1.7420000   0.4220000  -0.1750000  -2.7950000  -0.1160000
  -0.0180000  -4.0630000   0.3980000   0.8180000  -4.2810000   1.4670000
   1.5280000  -3.2260000   1.9990000   1.3890000  -1.9500000   1.4730000
   0.5080000   1.2380000  -1.9780000   1.1390000   2.0910000  -1.1540000
   0.2510000   1.5870000  -3.2840000  -0.8766337   2.9790214  -4.9506235
   0.0615401   2.6132862  -6.4381512  -1.7262301   2.4385417  -6.4381512
  -1.3431238  -1.2108330  -4.3164646  -0.9068861  -1.8482129  -1.9678541
  -0.8558744  -2.6286594  -0.9637859  -0.5647498  -4.9060867  -0.0495149
   0.9196763  -5.2893702   1.8946113   2.2089434  -3.3970202   2.8457988
   1.9698564  -1.1121854   1.8861252   1.4257649   2.9786803  -1.4854961
   0.5714606   2.5699694  -3.6596011
