
  371  0.0000000e+00
  -3.0000000   6.6700000   1.7700000  -2.2400000   7.3300000   1.8100000
  -2.9500000   6.2200000   0.8600000  -3.9000000   7.1300000   1.8100000
  -2.8400000   5.5900000   2.7600000  -1.9700000   4.9400000   2.6200000
  -4.0100000   4.6200000   2.6900000  -5.1500000   5.1300000   2.4800000
  -2.6600000   6.1300000   4.1700000  -3.5900000   6.5600000   4.5300000
  -2.3200000   5.2500000   4.7200000  -1.5700000   7.2000000   4.3100000
  -0.6200000   7.0100000   3.8000000  -1.7900000   8.0900000   3.7100000
  -1.3200000   7.5100000   5.8100000  -1.0400000   6.6300000   6.4000000
  -2.2300000   7.9200000   6.2500000  -0.2100000   8.5400000   6.0600000
   0.2100000   8.8700000   5.2000000   0.3500000   8.9300000   7.1700000
  -0.1100000   8.6300000   8.4100000   0.3700000   9.0000000   9.2200000
  -0.8700000   8.0000000   8.5800000   1.4000000   9.7000000   7.1500000
   1.9800000   9.8600000   7.9600000   1.7400000  10.0100000   6.2500000
  -3.7700000   3.3100000   2.8200000  -2.8500000   2.9200000   2.9800000
  -4.8700000   2.3500000   3.0100000  -5.6500000   2.7300000   3.6600000
  -5.2800000   2.1800000   2.0200000  -4.5500000   0.9500000   3.6300000
  -3.4100000   0.6400000   3.9800000  -5.5300000   0.0800000   3.7600000
  -6.4100000   0.3900000   3.3700000  -5.5800000  -1.1600000   4.5800000
  -5.1300000  -0.9600000   5.5500000  -4.7800000  -2.3800000   4.0100000
  -5.2000000  -3.5000000   4.3500000  -7.0600000  -1.4800000   4.9400000
  -7.0300000  -2.3500000   5.5900000  -7.5500000  -0.6700000   5.4900000
  -7.9100000  -1.9300000   3.6700000  -7.7100000  -2.9800000   3.4400000
  -7.5100000  -1.3100000   2.8600000  -9.4100000  -1.7400000   3.8700000
  -9.9700000  -1.7400000   5.0300000 -10.1300000  -1.8100000   2.8400000
  -3.7400000  -2.2100000   3.1500000  -3.2800000  -1.3100000   3.0700000
  -2.9100000  -3.2600000   2.5600000  -3.1900000  -4.2200000   3.0000000
  -2.8700000  -3.3000000   1.4700000  -1.4300000  -3.0700000   2.7800000
  -0.9300000  -1.9500000   2.6200000  -0.6800000  -4.1700000   3.1700000
  -1.1500000  -5.0300000   3.4100000   0.7900000  -4.1900000   3.3300000
   1.2600000  -3.6100000   2.5300000   1.0900000  -5.2400000   3.3300000
   1.2600000  -3.6100000   4.6600000   0.4400000  -3.4500000   5.5800000
   2.5200000  -3.1300000   4.6700000   3.1200000  -3.3500000   3.8900000
   3.1600000  -2.4100000   5.8100000   2.4200000  -2.2000000   6.5800000
   3.8000000  -1.0300000   5.5600000   4.9400000  -0.9800000   5.0800000
   4.1400000  -3.4000000   6.5700000   4.9600000  -3.5100000   5.8600000
   4.4700000  -2.8800000   7.4800000   3.5500000  -4.7400000   6.9700000
   2.8100000  -5.0900000   6.2500000   2.7700000  -4.6100000   8.2500000
   3.3200000  -4.1700000   9.0800000   2.5800000  -5.5900000   8.6900000
   1.8400000  -4.0700000   8.1100000   4.6500000  -5.7500000   7.1700000
   5.5900000  -5.3500000   7.5500000   4.2700000  -6.6300000   7.7000000
   5.0400000  -6.0600000   6.2000000   3.1500000   0.0800000   6.0000000
   2.1600000  -0.0200000   6.1500000   3.7100000   1.3800000   6.0100000
   4.2900000   1.6100000   6.9000000   4.3500000   1.4600000   5.1300000
   2.6400000   2.4200000   5.8500000   1.5000000   2.2500000   6.3400000
   2.9800000   3.5700000   5.2600000   3.9300000   3.7500000   4.9700000
   1.9800000   4.6000000   4.9100000   1.1900000   4.5900000   5.6600000
   1.0900000   4.3100000   3.7000000  -0.0600000   4.6900000   3.7100000
   2.6900000   5.9800000   4.8100000   2.0500000   6.7000000   4.3000000
   3.6300000   5.8800000   4.2500000   3.1300000   6.5700000   6.1400000
   2.7700000   5.9900000   7.1600000   3.7800000   7.5900000   6.0000000
   1.5700000   3.4200000   2.8600000   2.5200000   3.1100000   3.0400000
   0.9300000   2.8400000   1.6800000   1.7200000   2.1700000   1.3200000
   0.7800000   3.6800000   1.0000000  -0.4000000   2.0200000   1.7700000
  -1.1600000   2.2600000   2.6800000  -0.7300000   1.2300000   0.7700000
   0.0200000   1.0900000   0.1000000  -1.9400000   0.4700000   0.5600000
  -1.7000000  -0.4400000   0.0100000  -2.3100000   0.1200000   1.5200000
  -3.1200000   1.1300000  -0.1700000  -2.9600000   2.1000000  -0.8800000
  -4.3100000   0.5100000   0.0200000  -4.2900000  -0.3300000   0.5700000
  -5.5800000   0.8400000  -0.7000000  -5.4200000   0.7200000  -1.7800000
  -6.1600000   2.2900000  -0.5200000  -7.3600000   2.5100000  -0.2500000
  -6.6300000  -0.2400000  -0.4100000  -7.5200000  -0.1100000  -1.0200000
  -6.9300000  -0.2800000   0.6400000  -6.1100000  -1.6200000  -0.8600000
  -6.1600000  -1.9600000  -2.2000000  -6.4100000  -1.2400000  -2.9600000
  -5.8600000  -2.5400000   0.1900000  -6.1000000  -2.2600000   1.2100000
  -5.6900000  -3.2600000  -2.5300000  -5.7200000  -3.5300000  -3.5700000
  -5.5000000  -3.8600000  -0.2100000  -5.3700000  -4.5700000   0.5900000
  -5.3200000  -4.2300000  -1.5300000  -4.9400000  -5.4800000  -1.8300000
  -4.4100000  -5.9000000  -1.1500000  -5.3500000   3.3500000  -0.5900000
  -4.3800000   3.2300000  -0.8400000  -5.8800000   4.7100000  -0.6200000
  -6.6600000   4.8000000  -1.3700000  -6.3800000   5.0400000   0.3000000
  -4.8500000   5.7300000  -0.9200000  -3.6900000   5.5500000  -0.6200000
  -5.2500000   6.8700000  -1.4800000  -6.2400000   6.9700000  -1.6300000
  -4.4100000   8.1300000  -1.3800000  -4.4500000   8.5800000  -0.3900000
  -4.9000000   8.9000000  -1.9800000  -2.9200000   8.0900000  -1.8200000
  -2.6400000   7.5400000  -2.9000000  -1.9600000   8.6000000  -1.0300000
  -2.2000000   9.1400000  -0.2100000  -0.5600000   8.5000000  -1.3000000
  -0.3500000   8.1400000  -2.3100000  -0.0800000   9.4700000  -1.1700000
   0.0900000   7.5600000  -0.3300000  -0.5700000   7.0100000   0.5800000
   1.4200000   7.6200000  -0.3500000   1.8600000   8.2500000  -1.0000000
   2.2700000   7.3300000   0.7700000   1.6600000   7.2300000   1.6700000
   2.8700000   8.2300000   0.9000000   3.1400000   6.0300000   0.8100000
   2.8200000   5.0600000   0.1300000   4.3100000   6.1900000   1.4200000
   4.5100000   7.1000000   1.8300000   5.4700000   5.4100000   1.3900000
   5.7300000   5.0600000   0.3900000   5.4500000   4.1000000   2.2300000
   4.4300000   3.7500000   2.7600000   6.6100000   6.2800000   1.9600000
   7.5400000   5.7700000   1.7200000   6.6200000   7.2700000   1.4900000
   6.4900000   6.4400000   3.3800000   6.7400000   5.6400000   3.8500000
   6.5400000   3.3200000   2.1300000   7.3500000   3.7700000   1.7100000
   6.6400000   2.0000000   2.8100000   6.0500000   2.1200000   3.7200000
   7.6800000   1.8000000   3.0500000   6.2500000   0.7900000   1.9200000
   6.8000000   0.7200000   0.8200000   5.3800000  -0.1100000   2.4600000
   4.9400000  -0.1000000   3.3700000   4.8400000  -1.1700000   1.6200000
   5.1800000  -0.9800000   0.6100000   3.3200000  -1.1700000   1.5500000
   2.7000000  -1.0600000   2.6100000   5.2800000  -2.5600000   2.0400000
   4.9800000  -2.7500000   3.0700000   4.8200000  -3.2200000   1.3100000
   6.8200000  -2.7700000   1.9900000   7.7800000  -2.1000000   2.6700000
   7.5600000  -1.4000000   3.4600000   7.5500000  -3.7700000   1.2300000
   9.0100000  -2.5500000   2.4200000   9.8400000  -2.2600000   2.9200000
   8.9000000  -3.6200000   1.5400000   7.1700000  -4.7300000   0.2300000
   6.2100000  -4.6200000  -0.2500000   9.9200000  -4.4400000   1.0100000
  10.9000000  -4.3300000   1.4300000   8.1800000  -5.4900000  -0.4300000
   8.0300000  -6.1200000  -1.2900000   9.5200000  -5.3700000   0.0300000
  10.2600000  -5.9600000  -0.5000000   2.7500000  -1.3200000   0.3900000
   3.3700000  -1.5900000  -0.3600000   1.3600000  -1.4700000   0.0600000
   0.7000000  -1.3300000   0.9200000   1.0600000  -2.5100000  -0.0700000
   0.8600000  -0.5900000  -1.0400000   1.3000000   0.5700000  -1.0800000
  -0.1100000  -1.0400000  -1.9000000  -0.4700000  -1.9600000  -1.7000000
  -0.6100000  -0.2300000  -3.0300000  -0.7800000   0.7900000  -2.6900000
   0.0900000  -0.2400000  -3.8700000  -2.0000000  -0.5400000  -3.5100000
  -2.8900000  -0.5500000  -2.6700000  -2.2600000  -0.9300000  -4.7700000
  -1.5100000  -0.8900000  -5.4400000  -3.6300000  -1.0800000  -5.3200000
  -3.6300000  -1.9200000  -6.0100000  -4.3800000  -1.3500000  -4.5700000
  -4.0300000   0.2400000  -5.9800000  -3.1400000   0.9800000  -6.4700000
  -5.3100000   0.5600000  -5.8900000  -5.8900000  -0.1600000  -5.4700000
  -5.7500000   1.9500000  -6.1000000  -5.2100000   2.3100000  -6.9800000
  -5.2100000   2.7700000  -4.9900000  -5.7300000   2.6900000  -3.8500000
  -7.2800000   2.0500000  -6.4000000  -7.8500000   1.6900000  -5.5500000
  -7.6000000   1.2400000  -7.6300000  -7.3800000   0.1800000  -7.5700000
  -7.0200000   1.6800000  -8.4400000  -7.6300000   3.5100000  -6.6100000
  -6.9600000   3.9100000  -7.3700000  -8.6800000   3.6100000  -6.8700000
  -7.4300000   4.0400000  -5.6800000  -9.1300000   1.1600000  -7.9700000
  -9.6100000   2.1200000  -8.1600000  -9.3200000   0.6400000  -8.9100000
  -9.7000000   0.6900000  -7.1800000  -4.1900000   3.6100000  -5.2300000
  -3.8700000   3.6000000  -6.1900000  -3.5500000   4.3600000  -4.1400000
  -4.3500000   4.5300000  -3.4100000  -3.2700000   5.3000000  -4.6100000
  -2.2600000   3.6700000  -3.5400000  -1.7600000   2.6200000  -4.0400000
  -1.7100000   4.3500000  -2.5300000  -2.3400000   5.0000000  -2.0800000
  -0.3500000   4.0900000  -1.9500000  -0.2000000   4.8300000  -1.1700000
  -0.2900000   3.1200000  -1.4600000   0.8500000   4.3200000  -2.8900000
   0.6900000   4.2400000  -4.1100000   2.0300000   4.8300000  -2.3900000
   2.1700000   4.9100000  -1.3900000   3.2500000   4.9900000  -3.2300000
   2.9400000   4.7800000  -4.2500000   4.2700000   3.9100000  -2.7500000
   5.4300000   4.0700000  -3.0700000   3.8800000   6.4000000  -3.0500000
   4.4900000   6.4100000  -2.1500000   3.1000000   7.1500000  -2.8400000
   4.8300000   6.8400000  -4.2300000   4.6200000   6.2700000  -5.3500000
   5.6700000   7.7800000  -4.0400000   3.9700000   2.9600000  -1.9100000
   2.9800000   2.8800000  -1.7100000   4.8500000   2.0000000  -1.3000000
   4.2700000   1.8100000  -0.4000000   5.8500000   2.3800000  -1.0800000
   4.9400000   0.6800000  -2.1300000   4.1600000   0.3700000  -3.0000000
   5.7500000  -0.2500000  -1.7600000   6.2200000  -0.0400000  -0.8900000
   6.1600000  -1.5400000  -2.4600000   6.2300000  -1.2900000  -3.5100000
   5.2700000  -2.7800000  -2.2900000   4.6600000  -2.8800000  -1.2200000
   7.6500000  -1.7400000  -1.9600000   7.9500000  -2.7400000  -2.2900000
   7.5400000  -1.9400000  -0.8900000   8.7500000  -0.6600000  -2.2100000
   8.9500000  -0.6900000  -3.2800000   8.3500000   0.3200000  -1.9500000
  10.0400000  -0.9500000  -1.4000000   9.7600000  -0.8300000  -0.3500000
  10.3300000  -2.0000000  -1.4500000  11.2700000  -0.1900000  -1.8400000
  12.1200000  -0.4200000  -1.2000000  11.4700000  -0.4800000  -2.8800000
  11.0200000   1.2900000  -1.6900000  10.7000000   1.4500000  -0.7400000
  11.8700000   1.8100000  -1.8600000  10.3600000   1.6500000  -2.3600000
   5.2200000  -3.6400000  -3.3000000   5.8200000  -3.5000000  -4.1000000
   4.4800000  -4.9300000  -3.2600000   4.7800000  -5.6400000  -4.0300000
   4.7500000  -5.4600000  -2.3500000   3.0400000  -4.8000000  -3.4700000
   2.5200000  -3.7000000  -3.7500000   2.3600000  -5.9300000  -3.4900000
   2.7300000  -6.7100000  -2.9700000   1.1300000  -6.1700000  -4.2300000
   0.8100000  -7.2000000  -4.0600000   1.3000000  -6.1700000  -5.3100000
  -0.1200000  -5.2500000  -3.9700000  -0.2900000  -4.4300000  -3.0700000
  -1.1100000  -5.4300000  -4.8400000  -1.0100000  -6.0400000  -5.6400000
  -2.5500000  -5.1300000  -4.6000000  -2.6800000  -4.1200000  -4.2200000
  -2.8400000  -5.8200000  -3.8100000  -3.3300000  -5.2900000  -5.8800000
  -2.7800000  -5.6400000  -6.9400000  -4.7000000  -5.0700000  -5.8800000
  -5.1000000  -4.9900000  -4.9500000  -5.6400000  -4.9300000  -6.9500000
  -5.0200000  -4.7900000  -7.8400000  -6.4900000  -3.7200000  -6.7900000
  -7.0200000  -3.5800000  -5.6700000  -6.5400000  -6.1400000  -7.2000000
  -6.5700000  -6.3400000  -8.2700000  -7.5800000  -6.0200000  -6.9300000
  -6.2100000  -7.4600000  -6.5400000  -6.8900000  -7.9400000  -5.3800000
  -7.6300000  -7.2800000  -4.9500000  -5.1900000  -8.2900000  -7.0300000
  -4.4900000  -7.9700000  -7.7800000  -6.4700000  -9.0900000  -4.7500000
  -7.0300000  -9.3900000  -3.8900000  -4.8300000  -9.5300000  -6.4100000
  -4.0300000 -10.1400000  -6.8200000  -5.5100000  -9.9500000  -5.2900000
  -5.2600000 -10.8900000  -4.8100000  -6.6000000  -2.9300000  -7.7900000
   5.6360000  -8.6750000   3.1460000   5.3890000  -7.9390000   1.9770000
   4.0790000  -7.6620000   1.6660000   3.0520000  -8.2830000   2.2920000
   1.7590000  -7.9540000   1.9650000   1.4880000  -7.0330000   0.9940000
   0.1000000  -6.6320000   0.6950000  -0.2730000  -5.4610000   0.8910000
  -0.8960000  -7.5930000   0.1710000  -0.5850000  -8.4320000  -0.8750000
  -1.5290000  -9.3180000  -1.3540000  -2.7970000  -9.3410000  -0.8150000
  -3.1200000  -8.4770000   0.2300000  -2.1800000  -7.5840000   0.7080000
   2.5510000  -6.3620000   0.3340000   2.2690000  -5.4530000  -0.5800000
   3.8530000  -6.7170000   0.6780000   5.4256696  -8.0482665   4.0251850
   4.9864974  -9.5625817   3.1645758   6.6894473  -8.9910754   3.1645758
   3.2516437  -9.0466747   3.0581222   0.9271309  -8.4411513   2.4947901
   0.4161427  -8.3964395  -1.3293662  -1.2679267 -10.0085937  -2.1694269
  -3.5513818 -10.0385170  -1.2079098  -4.1254612  -8.5060737   0.6751994
  -2.4438854  -6.8731663   1.5049190   3.0007419  -4.9777263  -1.0477272
   4.7040316  -6.2461094   0.1641837
