
  649  0.0000000e+00
 -24.9990000  -2.0540000   3.7280000 -24.4020000  -1.4150000   3.2230000
 -25.0130000  -1.8470000   4.7170000 -25.8970000  -2.0240000   3.2670000
 -24.3380000  -3.3860000   3.5330000 -24.9070000  -4.2270000   3.9300000
 -22.9730000  -3.3800000   4.1630000 -21.9510000  -2.9140000   3.6370000
 -24.2510000  -3.7230000   2.0700000 -23.6940000  -2.9550000   1.5320000
 -25.2420000  -3.6910000   1.6170000 -23.6820000  -5.0380000   1.8720000
 -24.2870000  -5.6060000   1.3900000 -22.9870000  -3.9270000   5.4020000
 -23.8210000  -4.1840000   5.9090000 -21.6980000  -4.1360000   6.1000000
 -21.2800000  -3.1350000   5.9980000 -20.7750000  -5.1140000   5.3600000
 -19.5730000  -4.8530000   5.2310000 -21.9400000  -4.4640000   7.6160000
 -22.7610000  -3.7760000   7.8190000 -20.6450000  -4.0580000   8.3820000
 -20.1400000  -3.1370000   8.0870000 -19.8980000  -4.8450000   8.2820000
 -22.4210000  -5.9170000   7.7710000 -21.6500000  -6.6830000   7.6830000
 -23.3000000  -6.1500000   7.1710000 -22.7560000  -6.0520000   8.8000000
 -21.0980000  -3.8970000   9.8140000 -21.6630000  -4.7310000  10.2320000
 -21.9140000  -3.1850000   9.9430000 -20.3540000  -3.5790000  10.5440000
 -21.2740000  -6.1950000   4.6810000 -22.2550000  -6.4310000   4.7140000
 -20.3760000  -6.9830000   3.8390000 -19.4840000  -7.2370000   4.4120000
 -19.9080000  -6.2570000   2.5550000 -18.8440000  -6.6460000   2.0230000
 -20.9950000  -8.4080000   3.5400000 -20.1220000  -8.8540000   3.0640000
 -21.7430000  -8.3040000   2.7530000 -21.6780000  -9.3470000   4.5510000
 -22.6860000  -8.9530000   4.6820000 -21.2280000  -9.2300000   5.5370000
 -21.8350000 -10.8030000   4.0490000 -22.3430000 -10.7850000   3.0850000
 -22.5130000 -11.3160000   4.7310000 -20.3580000 -11.3810000   3.9100000
 -19.9760000 -11.3970000   4.9310000 -19.7190000 -10.6990000   3.3480000
 -20.3400000 -12.7080000   3.3030000 -20.4200000 -12.6890000   2.2970000
 -21.0430000 -13.3220000   3.6890000 -19.4850000 -13.2180000   3.4690000
 -20.5930000  -5.1730000   2.0390000 -21.5200000  -5.0530000   2.4220000
 -19.9550000  -4.3490000   1.0490000 -19.5290000  -5.0390000   0.3220000
 -18.7500000  -3.6350000   1.7250000 -17.6230000  -3.9340000   1.2800000
 -20.9710000  -3.3480000   0.3930000 -21.4820000  -2.7550000   1.1510000
 -21.7370000  -3.9880000  -0.0440000 -20.4520000  -2.4520000  -0.5110000
 -19.6460000  -2.8080000  -0.8920000 -18.9760000  -2.7450000   2.7400000
 -19.8750000  -2.9180000   3.1670000 -18.1280000  -1.9140000   3.4820000
 -17.7070000  -1.1270000   2.8570000 -16.9860000  -2.6770000   3.9950000
 -15.8460000  -2.2420000   3.9690000 -18.9210000  -1.3290000   4.6600000
 -19.5300000  -1.9870000   5.2790000 -19.8010000  -0.1470000   4.1430000
 -20.1910000  -0.4200000   3.1620000 -19.1000000   0.6410000   3.8690000
 -18.0370000  -0.7440000   5.8170000 -17.5650000  -1.5160000   6.4240000
 -18.6660000  -0.0960000   6.4270000 -17.1680000  -0.1840000   5.4700000
 -20.9620000   0.4540000   5.0230000 -21.6360000   1.0380000   4.3960000
 -20.5780000   1.0600000   5.8430000 -21.5970000  -0.3640000   5.3620000
 -17.1480000  -3.9940000   4.3110000 -18.0720000  -4.4010000   4.3510000
 -16.0300000  -4.8530000   4.7130000 -15.3620000  -4.2110000   5.2860000
 -15.1590000  -5.4860000   3.5570000 -13.9070000  -5.5140000   3.5310000
 -16.6320000  -5.8920000   5.6020000 -17.1980000  -5.4110000   6.4000000
 -17.1700000  -6.5680000   4.9370000 -15.4910000  -6.7170000   6.2430000
 -14.6350000  -6.0680000   6.4300000 -15.1530000  -7.6140000   5.7230000
 -15.9240000  -7.0830000   7.7000000 -15.5280000  -6.2690000   8.3070000
 -16.9690000  -6.8620000   7.9190000 -15.4920000  -8.3830000   8.2240000
 -16.0130000  -9.0880000   7.5750000 -15.9790000  -8.4800000   9.1950000
 -14.0360000  -8.6240000   8.3820000 -13.9470000  -9.5830000   8.6860000
 -13.4760000  -8.5110000   7.5500000 -13.5700000  -8.1560000   9.1470000
 -15.8910000  -5.7420000   2.4680000 -16.8280000  -5.3680000   2.5220000
 -15.0290000  -5.9640000   1.3070000 -14.3070000  -6.6860000   1.6900000
 -14.2680000  -4.7780000   0.7880000 -13.2020000  -5.0010000   0.2160000
 -15.8250000  -6.5980000   0.1500000 -16.7500000  -6.0580000  -0.0570000
 -15.2590000  -6.4620000  -0.7710000 -15.9490000  -8.0510000   0.5330000
 -15.1210000  -8.8830000   0.2420000 -16.9640000  -8.3790000   1.2990000
 -16.9380000  -9.2330000   1.8370000 -17.7520000  -7.7520000   1.3710000
 -14.6760000  -3.4780000   0.9840000 -15.5820000  -3.3980000   1.4230000
 -14.0430000  -2.3040000   0.3850000 -13.7170000  -2.5830000  -0.6170000
 -12.7940000  -1.9510000   1.1650000 -11.7380000  -1.7030000   0.5300000
 -15.0630000  -1.1500000   0.2820000 -14.4530000  -0.3140000  -0.0620000
 -15.3820000  -0.9140000   1.2970000 -16.3390000  -1.2760000  -0.5620000
 -16.9920000  -2.1020000  -0.2790000 -15.9970000  -1.6020000  -2.0210000
 -15.3900000  -2.5070000  -2.0090000 -16.8910000  -1.9190000  -2.5580000
 -15.4680000  -0.8370000  -2.5890000 -17.1230000   0.0670000  -0.6160000
 -17.3510000   0.4200000   0.3900000 -18.0880000  -0.1020000  -1.0930000
 -16.6770000   0.9240000  -1.1190000 -12.8870000  -1.8020000   2.5140000
 -13.7880000  -1.9250000   2.9530000 -11.6900000  -1.5550000   3.3360000
 -11.2050000  -0.6780000   2.9070000 -10.5950000  -2.6570000   3.3000000
  -9.4290000  -2.4040000   3.6460000 -12.0270000  -1.2010000   4.7760000
 -12.4820000  -0.2460000   5.0380000 -11.0820000  -1.1720000   5.3180000
 -12.9390000  -2.3150000   5.5150000 -13.0180000  -3.2820000   5.0190000
 -13.8830000  -1.8220000   5.7470000 -12.3790000  -2.7710000   6.8560000
 -12.9140000  -3.6650000   7.1770000 -11.3400000  -3.0980000   6.8900000
 -12.6380000  -1.7340000   7.8700000 -13.4310000  -1.1140000   7.7830000
 -12.0590000  -1.5170000   9.0490000 -11.0690000  -2.2260000   9.4360000
 -10.6560000  -2.8700000   8.7750000 -10.6580000  -1.9650000  10.3210000
 -12.4920000  -0.5600000   9.8950000 -12.1280000  -0.6220000  10.8350000
 -13.2830000  -0.0080000   9.5960000 -11.0570000  -3.9010000   3.0080000
 -12.0500000  -3.9600000   2.8360000 -10.0520000  -4.9810000   2.6970000
  -9.3010000  -5.1220000   3.4750000  -9.2660000  -4.6070000   1.4540000
  -8.0730000  -4.5260000   1.5250000 -10.7460000  -6.3880000   2.6920000
 -11.7060000  -6.2880000   2.1860000 -11.0840000  -6.5150000   3.7200000
 -10.0390000  -7.6890000   2.3460000  -9.9490000  -7.7430000   1.2610000
 -10.8210000  -8.4250000   2.5340000  -8.7010000  -7.9620000   3.0600000
  -8.8950000  -7.7420000   4.1100000  -7.9220000  -7.3170000   2.6530000
  -8.2220000  -9.4330000   2.8980000  -9.0520000 -10.0840000   2.6210000
  -7.8190000  -9.7360000   3.8650000  -7.1190000  -9.6970000   1.8890000
  -7.4420000  -9.4260000   0.9710000  -6.2260000  -9.2550000   2.0490000
  -6.8870000 -10.6780000   1.9550000  -9.9570000  -4.3760000   0.3190000
 -10.9530000  -4.4810000   0.4460000  -9.2760000  -4.0180000  -0.9580000
  -8.6490000  -4.8850000  -1.1680000  -8.4010000  -2.6870000  -1.0300000
  -7.3440000  -2.5630000  -1.6210000 -10.2750000  -3.9390000  -2.0200000
 -10.9850000  -3.1230000  -1.8860000 -10.9210000  -4.8160000  -1.9700000
  -9.6700000  -3.7310000  -3.3760000  -8.9200000  -4.6290000  -3.8260000
  -9.9700000  -2.6420000  -3.9730000  -8.8150000  -1.7840000  -0.1660000
  -9.7180000  -1.8540000   0.2820000  -8.1020000  -0.6160000   0.3450000
  -7.6440000  -0.0660000  -0.4770000  -6.7870000  -0.9530000   1.1540000
  -5.6490000  -0.6360000   0.7840000  -9.0830000   0.3250000   1.0810000
  -9.5200000  -0.2250000   1.9140000  -9.9330000   0.6130000   0.4630000
  -8.5730000   1.5540000   1.5500000  -8.0870000   2.5050000   0.7390000
  -8.1100000   2.3990000  -0.3360000  -8.2600000   1.9500000   2.9030000
  -7.6420000   3.5780000   1.5530000  -7.4090000   4.4860000   1.1780000
  -7.6880000   3.3050000   2.8820000  -8.4100000   1.3890000   4.1890000
  -8.9080000   0.4310000   4.1600000  -7.3190000   3.9900000   4.0170000
  -6.8730000   4.9690000   3.9150000  -8.2080000   2.1670000   5.2980000
  -8.4930000   1.6550000   6.2050000  -7.7080000   3.4540000   5.2670000
  -7.5180000   4.0090000   6.1740000  -6.9360000  -1.6990000   2.3150000
  -7.7940000  -2.0950000   2.6710000  -5.7660000  -2.1300000   3.1140000
  -5.1500000  -1.2480000   3.2910000  -4.8740000  -3.0670000   2.3150000
  -3.6450000  -2.9290000   2.3550000  -6.2170000  -2.7680000   4.4580000
  -7.0570000  -3.4160000   4.2070000  -6.8150000  -1.7220000   5.4330000
  -5.9430000  -1.3000000   5.9310000  -7.3320000  -0.9560000   4.8540000
  -5.1150000  -3.6120000   5.1410000  -5.5390000  -4.2270000   5.9360000
  -4.4460000  -2.9920000   5.7370000  -4.6150000  -4.2890000   4.4480000
  -7.7350000  -2.4270000   6.4370000  -7.1340000  -2.5840000   7.3320000
  -8.1170000  -3.3250000   5.9510000  -8.5850000  -1.7800000   6.6500000
  -5.3530000  -3.9250000   1.3850000  -6.3600000  -3.9690000   1.3160000
  -4.4550000  -4.7420000   0.5870000  -3.8500000  -5.4420000   1.1640000
  -3.5930000  -3.8260000  -0.2570000  -2.4150000  -4.0770000  -0.3280000
  -5.2750000  -5.7310000  -0.3340000  -6.0680000  -5.1370000  -0.7890000
  -4.6210000  -6.1810000  -1.0810000  -5.8690000  -6.9890000   0.3590000
  -5.3520000  -7.4480000   1.4180000  -6.8530000  -7.4920000  -0.1700000
  -4.2210000  -2.8980000  -0.9960000  -5.2210000  -3.0050000  -1.0900000
  -3.5570000  -2.0160000  -1.8950000  -2.9960000  -2.5540000  -2.6590000
  -2.4750000  -1.2730000  -1.1210000  -1.3010000  -1.2980000  -1.5970000
  -4.5560000  -1.1010000  -2.7070000  -5.2040000  -0.4680000  -2.1010000
  -5.0880000  -1.7970000  -3.3560000  -3.7840000  -0.2070000  -3.7020000
  -3.8030000   0.8340000  -3.3790000  -2.7390000  -0.4980000  -3.8080000
  -4.2800000  -0.2650000  -5.1790000  -4.0980000  -1.3250000  -5.3530000
  -3.6500000   0.3190000  -5.8510000  -5.7640000   0.0530000  -5.2560000
  -6.0070000   0.9910000  -4.7570000  -6.1550000  -0.7230000  -4.5980000
  -6.3220000   0.1550000  -6.5940000  -6.2260000  -0.7280000  -7.0750000
  -5.8640000   0.8970000  -7.1030000  -7.2910000   0.3740000  -6.4130000
  -2.8440000  -0.6860000   0.0390000  -3.8150000  -0.8420000   0.2700000
  -2.0310000   0.3350000   0.7150000  -1.6580000   1.0370000  -0.0310000
  -0.7260000  -0.2620000   1.2430000   0.3280000   0.3480000   1.3030000
  -2.8680000   1.0610000   1.7420000  -3.6590000   1.5430000   1.1670000
  -3.1800000   0.2430000   2.3920000  -2.2670000   2.2270000   2.5400000
  -1.7150000   2.8640000   1.8480000  -3.4910000   3.1310000   2.9550000
  -4.0530000   3.5090000   2.1020000  -4.0450000   2.6240000   3.7450000
  -3.1690000   4.0570000   3.4320000  -1.4800000   1.7110000   3.7520000
  -1.6810000   2.4060000   4.5670000  -1.7740000   0.7410000   4.1530000
  -0.4360000   1.4690000   3.5540000  -0.7510000  -1.5170000   1.6150000
  -1.6620000  -1.9100000   1.4260000   0.3050000  -2.3740000   2.0190000
   0.9810000  -1.8590000   2.7010000   1.2390000  -2.7590000   0.8040000
   2.3540000  -2.3040000   0.7590000  -0.1960000  -3.6000000   2.8660000
  -0.9870000  -4.0930000   2.3000000  -0.8460000  -3.2740000   4.2030000
  -1.6740000  -2.5750000   4.0820000  -1.3340000  -4.1430000   4.6440000
   0.8820000  -4.6480000   3.0800000   1.7120000  -4.1660000   3.5970000
   1.2170000  -5.1170000   2.1550000   0.5060000  -5.4780000   3.6780000
  -0.0070000  -2.6740000   5.3350000   0.5420000  -3.5340000   5.7170000
  -0.6300000  -2.3070000   6.1510000   0.6680000  -1.8810000   5.0120000
   0.7010000  -3.4700000  -0.2260000  -0.2970000  -3.6280000  -0.2060000
   1.5940000  -4.0130000  -1.2470000   2.3060000  -4.6440000  -0.7160000
   2.3960000  -2.8860000  -1.9660000   3.6520000  -2.9760000  -1.9630000
   0.9090000  -4.8990000  -2.2380000   0.1350000  -4.3040000  -2.7220000
   0.2920000  -5.6870000  -1.8060000   1.9250000  -5.6000000  -3.1830000
   2.8130000  -6.3180000  -2.7540000   1.6700000  -5.3520000  -4.4000000
   1.7440000  -1.8480000  -2.4210000   0.7650000  -1.8800000  -2.1740000
   2.3410000  -0.5000000  -2.7370000   2.7310000  -0.5580000  -3.7540000
   3.4910000  -0.0350000  -1.8740000   4.5000000   0.3780000  -2.4190000
   1.1580000   0.5200000  -2.7330000   0.3120000   0.0780000  -3.2580000
   0.7120000   0.6530000  -1.7470000   1.5330000   1.9520000  -3.1830000
   2.2320000   2.4570000  -2.5160000   0.6060000   2.5220000  -3.2370000
   2.1580000   2.0070000  -4.6000000   3.1420000   1.5440000  -4.6750000
   1.4870000   1.3260000  -5.1240000   1.9730000   3.4050000  -5.2990000
   2.4560000   4.2250000  -4.7680000   0.8990000   3.5880000  -5.2990000
   2.4640000   3.3720000  -6.6890000   3.4720000   3.3320000  -6.6300000
   2.2790000   4.2750000  -7.1020000   2.1870000   2.6300000  -7.3160000
   3.4520000  -0.0060000  -0.5600000   2.5230000  -0.2170000  -0.2250000
   4.4640000   0.6370000   0.3070000   4.9940000   1.3830000  -0.2850000
   5.6480000  -0.3220000   0.6300000   6.6880000   0.2210000   0.9220000
   3.9190000   1.3340000   1.5810000   3.0390000   0.8020000   1.9430000
   4.6220000   1.4680000   2.4030000   3.4880000   2.7500000   1.2280000
   4.2030000   3.6750000   1.0800000   2.1850000   2.9380000   0.9650000
   1.4990000   2.2200000   1.1510000   1.9990000   3.8630000   0.6050000
   5.4800000  -1.6420000   0.3590000   4.5930000  -2.0030000   0.0360000
   6.6450000  -2.5620000   0.3230000   7.2320000  -2.4120000   1.2290000
   7.4910000  -2.3520000  -0.9010000   8.6980000  -2.4770000  -0.8440000
   6.1260000  -3.9480000   0.3270000   6.8410000  -4.7280000   0.0640000
   5.4100000  -4.0190000  -0.4920000   5.4100000  -4.3590000   1.6490000
   4.3870000  -4.0110000   1.5030000   5.4510000  -5.4420000   1.5370000
   5.8720000  -3.9930000   3.0540000   7.0760000  -3.6240000   3.2960000
   4.9850000  -4.0560000   3.9130000   6.8820000  -1.8470000  -1.9890000
   5.9100000  -1.6050000  -1.8610000   7.5970000  -1.5100000  -3.3310000
   8.2340000  -2.3620000  -3.5690000   8.4180000  -0.2400000  -3.2000000
   9.6330000  -0.1810000  -3.1900000   6.6430000  -1.4140000  -4.5160000
   7.1210000  -0.9910000  -5.4000000   5.7950000  -0.7870000  -4.2400000
   6.1010000  -2.8290000  -4.8860000   6.7620000  -3.7460000  -5.2760000
   4.7320000  -2.9660000  -4.9340000   4.1480000  -2.2090000  -4.6090000
   4.2920000  -3.8510000  -5.1440000   7.6680000   0.8730000  -3.0330000
   6.6740000   0.7950000  -2.8750000   8.3860000   2.1440000  -3.2960000
   9.1160000   2.1600000  -4.1050000   9.3080000   2.5830000  -2.1760000
  10.0150000   3.5710000  -2.3210000   7.4260000   3.2810000  -3.5410000
   6.8290000   3.4500000  -2.6450000   8.0790000   4.1080000  -3.8210000
   6.5320000   3.1070000  -4.7990000   5.8590000   2.2730000  -4.6000000
   7.1790000   2.9110000  -5.6540000   5.7390000   4.3950000  -5.0380000
   4.9730000   4.5170000  -6.0380000   5.7820000   5.2930000  -4.1810000
   9.1840000   1.9930000  -0.9730000   8.3670000   1.4040000  -0.9030000
  10.0670000   2.1770000   0.1460000  10.1520000   3.2560000   0.2740000
  11.3920000   1.4860000  -0.0680000  12.4600000   1.8760000   0.3710000
   9.3910000   1.6140000   1.3990000   9.1310000   0.5560000   1.3500000
   8.4130000   2.0900000   1.4650000  10.1020000   1.9730000   2.6530000
  10.1440000   3.3580000   3.0030000   9.5060000   4.0770000   2.5120000
  10.9840000   1.0970000   3.3210000  11.0390000   0.0890000   2.9360000
  11.0020000   3.7440000   3.9710000  11.0300000   4.7980000   4.2030000
  11.8570000   1.5660000   4.2850000  12.5720000   0.9980000   4.8610000
  11.8740000   2.9170000   4.6420000  12.4540000   3.3960000   5.4170000
  11.4230000   0.2940000  -0.7460000  10.5810000   0.0400000  -1.2420000
  12.6170000  -0.3940000  -1.0960000  13.2390000  -0.3990000  -0.2010000
  13.2860000   0.2940000  -2.3660000  14.5360000   0.6420000  -2.4710000
  12.2790000  -1.9400000  -1.5140000  11.4950000  -1.9950000  -2.2700000
  11.9350000  -2.6810000  -0.3030000  12.7480000  -2.6490000   0.4230000
  11.0910000  -2.1710000   0.1610000  13.4930000  -2.7080000  -2.1640000
  13.3470000  -3.7860000  -2.2290000  13.5270000  -2.3170000  -3.1810000
  14.4080000  -2.5480000  -1.5940000  11.5060000  -4.1080000  -0.4590000
  11.0390000  -4.5490000   0.4210000  12.3430000  -4.7490000  -0.7360000
  10.7430000  -4.1400000  -1.2370000  12.4950000   0.4800000  -3.4200000
  11.5080000   0.3360000  -3.2630000  12.9000000   1.0050000  -4.7330000
  13.5380000   0.2500000  -5.1910000  13.7170000   2.3010000  -4.5570000
  14.7380000   2.4810000  -5.1930000  11.7220000   1.1970000  -5.6060000
  12.0730000   1.7170000  -6.4970000  10.9760000   1.7210000  -5.0080000
  11.2780000  -0.1510000  -6.1530000  11.0550000  -0.8540000  -5.3510000
  12.1460000  -0.5350000  -6.6880000  10.1420000  -0.1300000  -7.1040000
  10.1020000   0.8280000  -7.9340000   9.3470000  -1.0410000  -7.2330000
  13.2490000   3.2100000  -3.6760000  12.3620000   2.9900000  -3.2470000
  13.8070000   4.5820000  -3.5390000  14.0730000   4.9100000  -4.5430000
  15.1690000   4.5610000  -2.7810000  16.2720000   5.0060000  -3.2470000
  12.7540000   5.5610000  -2.9800000  12.6500000   5.4610000  -1.8990000
  11.7970000   5.2730000  -3.4150000  12.9840000   7.0920000  -3.2710000
  13.9690000   7.3900000  -2.9120000  12.8970000   7.2470000  -4.3470000
  11.8450000   7.9190000  -2.5730000  11.2520000   8.6360000  -3.1410000
  11.2910000   7.1880000  -1.9840000  12.4190000   8.7900000  -1.4760000
  11.6540000   9.2200000  -0.8310000  13.0120000   8.1270000  -0.8460000
  13.2510000   9.9660000  -1.9460000  13.8150000  10.3500000  -1.2010000
  12.6540000  10.7050000  -2.2890000  13.9270000   9.7040000  -2.6480000
  15.1190000   3.6810000  -1.7570000  14.1960000   3.3730000  -1.4880000
  16.2520000   3.2180000  -0.9810000  16.6140000   4.1060000  -0.4640000
  17.4800000   2.6780000  -1.7750000  18.6400000   2.9700000  -1.5010000
  15.8980000   2.3000000   0.1860000  15.4750000   1.4110000  -0.2820000
  16.7940000   1.9930000   0.7260000  14.9830000   2.9780000   1.0720000
  14.0730000   2.8230000   0.8080000  17.1770000   1.9280000  -2.8140000
  16.2000000   1.8510000  -3.0580000  18.2430000   1.3060000  -3.6260000
  19.1320000   1.2040000  -3.0040000  18.7140000   2.2600000  -4.7720000
  19.9250000   2.5020000  -4.8120000  17.9220000  -0.1520000  -4.0620000
  17.4970000  -0.6700000  -3.2030000  18.8300000  -0.6720000  -4.3680000
  16.9890000  -0.4970000  -5.2550000  15.7370000  -0.9360000  -5.0500000
  15.3930000  -0.8680000  -4.0290000  17.2410000  -0.5120000  -6.6840000
  15.0700000  -1.1250000  -6.2240000  14.1380000  -1.4930000  -6.3450000
  15.9310000  -0.8610000  -7.2770000  18.3350000  -0.2460000  -7.5050000
  19.3340000  -0.1530000  -7.1070000  15.7170000  -0.8080000  -8.5820000
  14.7190000  -1.0120000  -8.9410000  18.0470000  -0.1460000  -8.9440000
  18.8260000   0.1870000  -9.6140000  16.7140000  -0.3260000  -9.4610000
  16.4450000  -0.0440000 -10.4680000  17.7860000   2.8780000  -5.5910000
  16.8570000   2.7260000  -5.2250000  18.0050000   3.8940000  -6.7090000
  18.6950000   3.4130000  -7.4010000  18.6000000   5.2120000  -6.3320000
  19.4590000   5.6810000  -7.0930000  16.6770000   4.1410000  -7.4460000
  16.0720000   3.2590000  -7.2390000  16.3660000   5.1060000  -7.0470000
  16.8260000   4.2880000  -8.9350000  17.3300000   5.2540000  -8.9010000
  17.3490000   3.4580000  -9.4090000  15.4070000   4.3150000  -9.4960000
  15.5620000   4.5690000 -10.5440000  14.8320000   5.1120000  -9.0230000
  14.6950000   3.0060000  -9.4750000  14.2870000   2.8960000  -8.4690000
  15.3260000   2.1760000  -9.7920000  13.5310000   3.0690000 -10.3960000
  13.7760000   2.9080000 -11.3620000  13.1520000   3.9930000 -10.2410000
  12.7810000   2.4530000 -10.1180000  18.1220000   5.8260000  -5.2890000
  17.4690000   5.2760000  -4.7500000  18.4700000   7.1890000  -4.8570000
  18.9640000   7.5930000  -5.7410000  19.5060000   7.3510000  -3.7660000
  19.7610000   8.4890000  -3.4030000  17.1370000   7.9200000  -4.5810000
  16.6750000   7.5460000  -3.6670000  17.3630000   8.9490000  -4.2990000
  16.0120000   7.9250000  -5.6900000  16.4440000   7.7100000  -6.6670000
  15.3490000   7.0880000  -5.4730000  15.1590000   9.2150000  -5.6130000
  15.0580000   9.8710000  -6.6710000  14.6780000   9.5770000  -4.5510000
  20.0510000   6.2310000  -3.1990000  19.6570000   5.3840000  -3.5820000
  21.2360000   6.1610000  -2.3530000  21.8120000   7.0730000  -2.5110000
  22.2640000   5.0280000  -2.6970000  23.4580000   5.2600000  -2.9510000
  20.7720000   6.1640000  -0.8750000  19.9840000   5.4140000  -0.8050000
  20.3560000   7.1630000  -0.7500000  22.0080000   6.0710000   0.0680000
  23.0150000   6.7220000  -0.2090000  21.8190000   5.2840000   1.0500000
  21.7780000   3.7500000  -2.7430000  20.8820000   3.5930000  -2.3040000
  22.6550000   2.5080000  -2.7870000  23.5780000   2.7980000  -2.2860000
  23.0450000   2.2240000  -4.3310000  23.3000000   1.0420000  -4.7290000
  22.1170000   1.2260000  -1.9680000  21.2040000   0.9240000  -2.4810000
  22.7950000   0.3720000  -1.9780000  21.7520000   1.5610000  -0.4740000
  21.0690000   2.4060000  -0.3860000  23.0140000   2.0150000   0.2710000
  23.7490000   1.2290000   0.4450000  22.7130000   2.3560000   1.2610000
  23.4580000   2.8750000  -0.2310000  21.1120000   0.3450000   0.3290000
  21.1190000   0.7130000   1.3540000  20.1320000   0.2790000  -0.1460000
  21.7070000  -0.5590000   0.2020000  23.2730000   3.2610000  -5.1320000
  23.1850000   4.1800000  -4.7220000  23.4820000   3.1380000  -6.5330000
  23.9940000   2.1930000  -6.7130000  24.2530000   4.3270000  -7.1690000
  23.9840000   5.4220000  -6.6350000  22.0940000   3.0330000  -7.2720000
  21.7770000   4.0510000  -7.4970000  21.3280000   2.5480000  -6.6670000
  22.2460000   2.1840000  -8.5940000  22.6910000   2.7910000  -9.8380000
  22.8420000   3.8570000  -9.9160000  21.9920000   0.8170000  -8.5890000
  21.6730000   0.3260000  -7.6820000  23.0240000   1.9540000 -10.9370000
  23.4400000   2.2820000 -11.8780000  22.0740000   0.0330000  -9.7280000
  21.7550000  -0.9980000  -9.7570000  22.7110000   0.6030000 -10.8810000
  22.9070000  -0.1760000 -11.9790000  22.1980000  -0.6240000 -12.4480000
  24.8550000   4.1970000  -8.2450000  -0.2450000   6.4650000   9.8840000
   0.7770000   7.4620000   9.4930000   1.7250000   6.9680000   8.4680000
   1.4870000   7.5050000   7.1250000   2.0560000   6.6900000   6.0050000
   2.2480000   7.4930000   4.7380000   3.4850000   8.2820000   4.7560000
   1.1430000   5.6820000   5.6940000   1.4700000   4.4350000   5.9690000
   2.5730000   4.0440000   5.8790000   0.3110000   3.6710000   6.4120000
   0.3240000   3.1230000   7.6800000  -0.8680000   2.5760000   8.2760000
  -1.2150000   2.9590000   9.5340000  -2.3630000   2.4930000  10.1040000
  -3.1780000   1.6220000   9.4230000  -4.3120000   1.1940000  10.0310000
  -5.1160000   0.2810000   9.3260000  -2.8210000   1.2240000   8.1550000
  -1.6750000   1.6990000   7.5930000  -0.3020598   6.4093359  10.9811079
  -1.2233555   6.7653066   9.4807178   0.0309895   5.4795086   9.4807178
   0.2630098   8.3484476   9.0929691   1.3657493   7.6908769  10.3935496
   2.7434194   7.2469818   8.7762062   1.5841019   5.8789432   8.4039451
   0.3997347   7.5781725   6.9750005   2.0006835   8.4769976   7.0882575
   3.0321258   6.3105766   6.3414764   2.2830614   6.8011346   3.8835452
   1.4047634   8.1945143   4.6553579   3.7833838   8.4723191   5.7975113
   4.2824621   7.7253588   4.2419914   3.3164941   9.2398105   4.2419914
  -0.5567428   3.5333977   5.7501178   1.2660697   3.1038746   8.2475727
  -0.5663738   3.6481873  10.0946291  -2.6387204   2.8175863  11.1182100
  -5.6693214  -0.3473364  10.0394626  -5.8278792   0.8316086   8.6934985
  -4.4797902  -0.3555367   8.6934985  -3.4597554   0.5238362   7.5966433
  -1.3922561   1.3765104   6.5800556
