
  371  0.0000000e+00
   6.3300000  -2.4800000   9.7100000   5.9400000  -1.9000000  10.4400000
   7.3000000  -2.5900000   9.9700000   5.9300000  -3.4000000   9.6700000
   6.2500000  -1.7800000   8.4000000   5.1900000  -1.5400000   8.2400000
   6.5400000  -2.6700000   7.2700000   7.6500000  -2.7100000   6.8100000
   6.9700000  -0.4400000   8.3700000   8.0000000  -0.5600000   8.0400000
   6.9400000   0.1000000   9.3200000   6.3900000   0.6600000   7.4700000
   5.0100000   0.9300000   7.6200000   4.4100000   0.3100000   8.2800000
   7.2200000   1.4600000   6.6700000   8.2900000   1.3400000   6.5500000
   4.4500000   2.0700000   6.9500000   3.3900000   2.2600000   6.9900000
   6.6600000   2.5200000   6.0500000   7.3300000   3.1300000   5.4600000
   5.2800000   2.8300000   6.1100000   4.8700000   4.0000000   5.5500000
   3.9400000   4.0000000   5.3200000   5.5000000  -3.4800000   6.8800000
   4.5500000  -3.2900000   7.2000000   5.6600000  -4.6000000   5.9300000
   4.8600000  -5.3000000   6.1800000   6.5600000  -5.1700000   6.1300000
   5.6900000  -4.3000000   4.4100000   5.7600000  -3.1300000   3.9900000
   5.4800000  -5.3800000   3.6100000   5.2500000  -6.2200000   4.1300000
   5.4700000  -5.3100000   2.1100000   5.9900000  -4.4100000   1.7900000
   4.0900000  -5.1800000   1.5600000   3.2500000  -5.9800000   1.8200000
   6.3000000  -6.4400000   1.5500000   5.7200000  -7.3500000   1.7100000
   6.4100000  -6.2500000   0.4900000   7.7000000  -6.6200000   2.0900000
   8.4300000  -5.6600000   1.9700000   8.1000000  -7.6700000   2.5800000
   3.9000000  -4.0700000   0.8400000   4.7500000  -3.6800000   0.4600000
   2.6000000  -3.6600000   0.2000000   2.5000000  -2.6200000  -0.1200000
   1.7700000  -3.8300000   0.8800000   2.2500000  -4.5800000  -1.0300000
   3.1400000  -5.2700000  -1.5100000   0.9700000  -4.6400000  -1.3900000
   0.4200000  -3.9700000  -0.8700000   0.3700000  -5.4200000  -2.3900000
  -0.2900000  -6.0900000  -1.8300000   1.2200000  -5.9900000  -2.7700000
  -0.3000000  -4.7100000  -3.5800000  -0.0300000  -3.5100000  -3.8300000
  -1.3100000  -5.3300000  -4.1700000  -1.3300000  -6.3100000  -3.9400000
  -2.2700000  -4.7500000  -5.1500000  -2.0100000  -3.7100000  -5.3000000
  -3.6700000  -4.8900000  -4.5700000  -3.9400000  -5.6200000  -3.5700000
  -2.1300000  -5.5600000  -6.4100000  -2.9400000  -5.2500000  -7.0700000
  -2.2700000  -6.6200000  -6.1600000  -0.7400000  -5.3300000  -7.0700000
   0.0100000  -5.3900000  -6.2900000  -0.7200000  -4.3200000  -7.4700000
  -0.4800000  -6.3600000  -8.2600000  -1.1200000  -6.2400000  -9.1300000
  -0.4800000  -7.3700000  -7.8500000   0.7900000  -6.1200000  -8.9400000
   0.6800000  -5.5000000  -9.7300000   2.0400000  -6.2100000  -8.6200000
   2.4300000  -6.7200000  -7.4900000   1.8300000  -7.3300000  -6.9500000
   3.4200000  -6.8100000  -7.3400000   2.9300000  -5.8000000  -9.4200000
   2.7300000  -5.5000000 -10.3700000   3.9200000  -5.9500000  -9.3100000
  -4.6400000  -4.2600000  -5.2600000  -4.3700000  -3.7100000  -6.0600000
  -6.0500000  -4.3700000  -4.8700000  -6.6900000  -4.3500000  -5.7500000
  -6.3200000  -5.2700000  -4.3300000  -6.3100000  -3.0300000  -4.1000000
  -6.1600000  -1.9900000  -4.6600000  -6.6800000  -3.2000000  -2.8400000
  -6.8300000  -4.1200000  -2.4500000  -6.8600000  -2.1200000  -1.8900000
  -6.9100000  -1.1500000  -2.3900000  -5.7400000  -2.1400000  -0.8300000
  -5.1600000  -3.1400000  -0.5000000  -8.1900000  -2.3200000  -1.0800000
  -8.4100000  -1.3400000  -0.6500000  -8.1200000  -3.1200000  -0.3400000
  -9.3900000  -2.7500000  -1.9300000 -10.0200000  -1.7100000  -2.7100000
  -9.5700000  -0.7300000  -2.6400000  -9.9300000  -4.0700000  -1.9400000
  -9.5400000  -4.8600000  -1.3100000 -10.9300000  -2.1600000  -3.6600000
 -11.2300000  -1.4800000  -4.4500000 -11.0700000  -4.3600000  -2.7400000
 -11.4400000  -5.3700000  -2.7600000 -11.4900000  -3.4700000  -3.6800000
 -12.1900000  -3.7400000  -4.4500000  -5.3400000  -0.9800000  -0.2500000
  -5.8300000  -0.1500000  -0.5400000  -4.2700000  -0.7600000   0.6200000
  -3.5400000  -0.0600000   0.1900000  -3.7500000  -1.6800000   0.8500000
  -4.8100000  -0.1400000   1.9200000  -5.8600000   0.5300000   1.9600000
  -3.8800000  -0.1500000   2.9100000  -3.0500000  -0.7000000   2.7400000
  -4.0300000   0.6800000   4.1100000  -5.0300000   0.5100000   4.5100000
  -3.9500000   1.7500000   3.9400000  -2.9600000   0.4300000   5.2100000
  -1.8200000   0.1100000   4.8700000  -3.3200000   0.5000000   6.4400000
  -4.2900000   0.6900000   6.6200000  -2.3800000   0.5900000   7.5500000
  -1.8500000   1.5100000   7.3400000  -1.3700000  -0.5300000   7.6700000
  -1.8000000  -1.6800000   7.6500000  -3.1300000   0.8500000   8.8700000
  -3.8200000   1.6700000   8.6400000  -3.6900000  -0.0700000   9.0200000
  -2.2000000   1.1500000   9.9900000  -1.3800000   0.4300000  10.0400000
  -1.8100000   2.1500000   9.8200000  -2.9500000   1.1000000  11.3000000
  -3.9200000   1.5800000  11.2300000  -3.1200000   0.0400000  11.4800000
  -2.0000000   1.6300000  12.4500000  -1.8100000   2.6900000  12.2600000
  -1.0400000   1.1100000  12.4400000  -2.6300000   1.5300000  13.7400000
  -3.5300000   2.0000000  13.7400000  -1.9200000   1.7500000  14.4300000
  -2.8500000   0.5600000  13.9100000  -0.1000000  -0.2600000   7.9200000
   0.1500000   0.7200000   7.9800000   0.9900000  -1.1800000   8.3100000
   0.5400000  -2.0500000   8.8000000   1.5100000  -0.7000000   9.1400000
   1.8700000  -1.6500000   7.1800000   3.0700000  -1.8600000   7.4100000
   1.3400000  -1.5500000   5.9200000   0.3700000  -1.3700000   5.7400000
   2.1700000  -1.7800000   4.7800000   2.6600000  -2.7200000   5.0100000
   1.5800000  -1.9400000   3.8700000   3.0200000  -0.5700000   4.5400000
   2.7700000   0.5200000   5.1500000   4.0300000  -0.7900000   3.7900000
   4.2500000  -1.7400000   3.5100000   5.1300000   0.2100000   3.4800000
   4.7400000   1.1800000   3.1900000   5.8400000   0.3800000   4.2900000
   6.0500000  -0.2200000   2.3600000   5.6400000  -1.1300000   1.6000000
   7.2000000   0.3700000   2.1400000   7.5800000   1.1700000   2.6300000
   7.9600000   0.0400000   0.9000000   7.4900000  -0.7700000   0.3300000
   8.9000000  -0.4300000   1.1800000   8.3700000   1.2700000  -0.0100000
   8.1900000   2.4500000   0.3800000   8.5900000   1.0700000  -1.3000000
   8.6600000   0.0900000  -1.5600000   8.5800000   2.0800000  -2.3600000
   9.2200000   2.8700000  -1.9700000   7.2900000   2.7100000  -2.6900000
   7.2600000   3.8200000  -3.1600000   9.2800000   1.4700000  -3.5300000
   8.8100000   0.5200000  -3.8100000   9.1400000   2.1500000  -4.3700000
  10.7500000   1.2200000  -3.2900000  10.8800000   0.6900000  -2.3500000
  11.2800000   2.1500000  -3.0700000  11.4100000   0.4700000  -4.3900000
  10.8000000   0.2800000  -5.4900000  12.4800000  -0.1600000  -4.1400000
   6.1600000   1.9700000  -2.5900000   6.4000000   1.0000000  -2.4400000
   4.7700000   2.4000000  -2.9300000   4.0700000   1.6300000  -2.6000000
   4.6800000   2.5600000  -4.0100000   4.2700000   3.6900000  -2.3100000
   4.6000000   4.0500000  -1.1800000   3.4600000   4.4100000  -3.0600000
   3.2900000   4.2000000  -4.0300000   2.5500000   5.4400000  -2.4000000
   3.1600000   6.2700000  -2.0400000   1.8000000   4.8800000  -1.1900000
   1.5800000   3.6700000  -1.0300000   1.5300000   5.9800000  -3.4900000
   0.8300000   6.6100000  -2.9400000   0.6700000   4.8300000  -4.1300000
   1.2200000   4.1700000  -4.8000000   0.1400000   4.2500000  -3.3700000
   2.2800000   6.8400000  -4.4700000   3.0800000   6.3600000  -5.0200000
   2.8100000   7.6400000  -3.9500000   1.6200000   7.1900000  -5.2700000
  -0.3900000   5.4600000  -5.0700000  -0.8100000   6.4300000  -4.8100000
  -1.2100000   4.7300000  -5.0600000   0.0100000   5.4700000  -6.0800000
   1.2600000   5.7700000  -0.4100000   1.6700000   6.6900000  -0.4500000
   0.4300000   5.3400000   0.7300000   1.0900000   4.6700000   1.2900000
   0.1800000   6.1700000   1.3800000  -0.9200000   4.6200000   0.5300000
  -1.4400000   4.5400000  -0.6100000  -1.4700000   4.1200000   1.6500000
  -0.9200000   4.0700000   2.5000000  -2.6000000   3.2900000   1.6700000
  -2.7000000   2.6000000   0.8300000  -2.5300000   2.6700000   2.5600000
  -3.9100000   4.0700000   1.7400000  -3.9200000   5.3300000   1.6900000
  -5.0300000   3.3600000   1.8500000  -4.9900000   2.3500000   1.9200000
  -6.4000000   3.9200000   1.5500000  -6.5200000   4.8900000   2.0500000
  -7.0500000   3.1900000   2.0300000  -6.6200000   4.1700000   0.0600000
  -7.6500000   3.8500000  -0.5700000  -5.5300000   4.6800000  -0.6200000
  -4.7700000   4.9600000  -0.0200000  -5.3500000   4.5300000  -2.0300000
  -6.3200000   4.5600000  -2.5500000  -4.9200000   3.1100000  -2.3100000
  -4.4300000   2.4400000  -1.3400000  -4.4200000   5.6100000  -2.6000000
  -3.4300000   5.3700000  -2.2100000  -4.2500000   5.4000000  -3.6600000
  -4.6800000   7.0900000  -2.4700000  -4.5400000   7.3800000  -1.4300000
  -3.7400000   7.7800000  -3.4700000  -2.7400000   7.4400000  -3.2100000
  -3.7500000   8.8400000  -3.2300000  -4.0300000   7.6300000  -4.5100000
  -6.0800000   7.4800000  -2.9000000  -6.2900000   8.5400000  -2.7900000
  -6.3000000   7.0900000  -3.9000000  -6.7900000   7.0800000  -2.1800000
  -5.1900000   2.6100000  -3.5000000  -5.4900000   3.2400000  -4.2300000
  -5.0700000   1.2200000  -3.9900000  -5.9900000   0.6400000  -3.8500000
  -4.2900000   0.7600000  -3.3800000  -4.8300000   1.1600000  -5.4800000
  -5.1800000   2.1000000  -6.1600000  -4.2800000   0.0000000  -5.9900000
  -4.0500000  -0.7400000  -5.3300000  -4.0600000  -0.1000000  -7.4700000
  -5.0200000   0.0300000  -7.9700000  -3.3700000   0.7300000  -7.6400000
  -3.4700000  -1.4300000  -7.9500000  -3.2200000  -2.4100000  -7.1900000
  -3.1000000  -1.3900000  -9.2200000  -3.1300000  -0.5300000  -9.7400000
  -2.4900000  -2.5200000  -9.9800000  -2.9300000  -3.4600000  -9.6400000
  -1.0400000  -2.7800000  -9.7600000  -0.6600000  -3.8500000 -10.1400000
  -2.8600000  -2.4000000 -11.5000000  -2.4600000  -3.3000000 -11.9700000
  -3.9400000  -2.4900000 -11.6500000  -2.3700000  -1.2000000 -12.1300000
  -1.4100000  -1.2700000 -12.2100000  -0.2400000  -1.9200000  -9.1500000
  -0.5900000  -1.0700000  -8.7500000   1.2000000  -2.2500000  -8.8700000
   1.7600000  -1.4300000  -9.3100000   1.4500000  -3.2600000  -9.2000000
   1.4200000  -2.2100000  -7.3800000   0.4900000  -2.1300000  -6.6100000
   2.6500000  -2.4200000  -6.9200000   3.4400000  -2.4900000  -7.5400000
   2.9500000  -2.6000000  -5.5200000   2.2700000  -3.3400000  -5.1100000
   2.8400000  -1.2700000  -4.8500000   3.7000000  -0.3700000  -4.9500000
   4.3100000  -3.2800000  -5.3400000   5.0600000  -2.5000000  -5.2200000
   4.3600000  -3.7800000  -4.3700000   4.8200000  -4.2200000  -6.4300000
   5.0400000  -5.3800000  -6.0200000   5.1200000  -3.8900000  -7.6000000
   1.7400000  -1.1100000  -4.0600000   0.9300000  -1.7100000  -4.1300000
   1.5500000   0.1000000  -3.2600000   1.8700000   1.0000000  -3.7900000
   0.5300000   0.2300000  -2.8800000   2.3300000   0.0100000  -1.9800000
   3.2000000  -0.7900000  -1.7800000   1.9800000   0.8500000  -1.0200000
   1.3200000   1.5700000  -1.2700000   2.4900000   1.0500000   0.3400000
   3.1800000   1.8700000   0.5200000   3.0700000   0.1700000   0.6200000
   1.3700000   1.2600000   1.4300000   0.2100000   0.9000000   1.2000000
   1.7400000   1.7900000   2.5700000   2.6800000   2.0800000   2.7900000
   0.8400000   1.9800000   3.6500000   0.7900000   1.0300000   4.1700000
  -0.1600000   2.1600000   3.2600000   1.1800000   3.0500000   4.6000000
   2.2200000   3.7400000   4.4000000   0.4100000   3.2200000   5.7200000
  -0.3100000   2.5200000   5.8000000   0.5000000   4.2400000   6.8000000
   1.5100000   4.6600000   6.7900000   0.2500000   3.6900000   8.2000000
   0.1700000   2.4900000   8.3800000  -0.4700000   5.3700000   6.3600000
  -0.3600000   6.1700000   7.1000000  -0.1400000   5.7700000   5.4000000
  -1.9500000   4.9800000   6.3600000  -2.5800000   4.1200000   7.2200000
  -2.0800000   3.6300000   8.0400000  -3.0700000   5.5900000   5.5800000
  -3.9400000   4.0700000   6.9300000  -4.6700000   3.5400000   7.4000000
  -4.3100000   5.0700000   6.0900000  -3.1900000   6.5700000   4.5400000
  -2.2900000   7.0200000   4.1600000  -5.6100000   5.4300000   5.5500000
  -6.5200000   4.9000000   5.8000000  -4.4300000   7.0500000   4.1200000
  -4.5800000   7.8300000   3.3800000  -5.6000000   6.4400000   4.6000000
  -6.5700000   6.7300000   4.2000000   0.1400000   4.5200000   9.1300000
   1.3130000  -2.8750000   2.4570000   1.4570000  -1.5830000   1.9430000
   0.9210000  -1.2730000   0.7320000   1.0840000   0.0220000   0.2860000
   0.5720000   0.4090000  -0.9310000  -0.0950000  -0.5000000  -1.7160000
  -0.6330000  -0.0610000  -3.0080000  -1.6660000  -0.3880000  -3.2440000
  -0.0710000   0.8640000  -3.9600000   1.2780000   0.8930000  -4.1800000
   1.8150000   1.7690000  -5.0970000   1.0020000   2.6350000  -5.7890000
  -0.3610000   2.5950000  -5.5860000  -0.9090000   1.7010000  -4.6780000
  -0.2790000  -1.8060000  -1.2670000  -0.9560000  -2.6860000  -2.0220000
   0.2350000  -2.1800000  -0.0460000   1.3175000  -2.8349000   3.5563000
   0.3615000  -3.3039000   2.1096000   2.1467000  -3.5029000   2.1096000
   1.6267000   0.7498000   0.9071000   0.6967000   1.4462000  -1.2754000
   1.9381000   0.2130000  -3.6216000   2.9002000   1.7758000  -5.2767000
   1.4357000   3.3544000  -6.4993000  -1.0177000   3.2759000  -6.1473000
  -1.9981000   1.6572000  -4.5297000  -1.0869000  -3.6141000  -1.7032000
   0.0970000  -3.2111000   0.3114000
